ITEM: TIMESTEP
0
ITEM: NUMBER OF ATOMS
144
ITEM: BOX BOUNDS pp pp pp
0.0000000000000000e+00 1.2522000000000000e+01
0.0000000000000000e+00 1.2522000000000000e+01
0.0000000000000000e+00 3.5728673370000003e+01
ITEM: ATOMS id type x y z fx fy fz
1 2 1.28803 11.4725 35.004 -0.00408634 1.56973 0.0184096
2 2 1.72682 1.85177 34.8679 0.215932 -0.100961 0.455476
3 2 2.08989 0.01347 1.74224 0.262772 -0.31736 0.104932
4 2 0.18894 1.99567 1.45854 -0.692238 0.289769 0.227317
5 2 0.08888 12.3409 4.08564 -0.733172 1.14593 -1.15787
6 2 2.25158 1.72165 4.03954 -0.0364643 0.486653 -0.0191622
7 2 1.78235 0.01277 6.33364 0.653917 -0.24002 -0.691495
8 2 0.00515 2.38859 6.23824 -0.187946 -1.0182 -0.192007
9 2 12.3778 0.23404 8.30014 0.429702 1.11558 0.121134
10 2 2.06846 1.77259 8.40274 1.15377 0.91133 0.0268878
11 2 2.07921 12.312 10.7076 -0.251102 -0.38593 -0.425751
12 2 0.42047 2.14698 10.6153 -1.62041 -1.15116 -0.0798882
13 2 0.23474 0.0624 12.7571 0.341668 0.262025 0.342814
14 2 2.76007 2.10952 12.1064 -1.32282 1.83993 0.871207
15 2 2.44464 12.1645 15.4387 -0.495214 0.310559 -0.502862
16 2 0.76774 2.28514 14.505 0.174642 -0.101799 -0.000576718
17 2 0.27851 4.49589 35.3364 -1.65817 -1.34791 0.372151
18 2 2.23429 6.07036 35.2715 1.66217 1.53952 0.181128
19 2 2.09495 4.13512 1.70614 0.170092 -0.0978081 0.4769
20 2 12.2222 6.38004 2.02414 0.458368 -0.837897 0.106076
21 2 0.2177 3.94395 3.98854 -0.266818 0.161027 -0.748428
22 2 1.9655 6.01518 3.92374 0.246773 0.568347 0.248034
23 2 2.25192 4.0679 6.09394 0.486156 -0.168712 0.178789
24 2 0.11785 5.86452 6.46464 0.457877 1.26879 -0.997169
25 2 12.4296 4.08693 8.36994 0.10574 -0.651064 1.09563
26 2 2.39892 6.41536 8.26834 -1.81009 -1.0831 0.586521
27 2 2.07183 4.16952 10.282 1.2005 1.04914 -0.221368
28 2 12.5219 6.13915 10.4838 0.896853 1.69839 -0.50381
29 2 0.07012 4.13527 12.4863 -0.0883828 -0.631041 0.95502
30 2 1.55189 6.35899 12.9028 0.626847 1.08465 -1.04917
31 2 2.21362 4.92641 15.1136 0.679405 -0.685718 0.43115
32 2 12.2883 6.01703 14.9892 -0.522093 -0.0154654 0.0127429
33 2 12.0975 8.07891 35.62 -0.220277 0.150957 -0.597019
34 2 1.93272 9.00234 34.9944 0.167409 -0.805511 -0.226128
35 2 2.09491 8.3496 2.07394 -1.27769 -0.563564 -0.139091
36 2 0.19469 10.3331 1.65024 0.329049 0.536507 -0.0608879
37 2 0.00752 8.48414 4.05684 0.305204 -0.602897 -0.216923
38 2 2.15494 10.5624 4.06434 -0.118663 -0.0836419 0.342647
39 2 1.87832 8.53981 6.17184 -0.020371 -0.570221 -0.280243
40 2 12.0852 10.4565 5.87154 0.0496188 -0.216594 1.24367
41 2 0.18062 8.37917 8.49434 -0.811316 -1.00037 -0.0370964
42 2 1.90677 10.431 8.16314 0.124475 0.878005 0.605772
43 2 2.0052 8.63137 10.5904 0.149779 -0.637617 0.272685
44 2 12.1816 10.1301 10.9647 0.722859 0.771246 -0.0479033
45 2 12.0296 8.61877 13.1577 0.0550613 -0.620238 0.439775
46 2 2.31788 10.1982 12.9736 -0.525873 0.698198 -0.171843
47 2 1.70333 8.29182 14.9259 0.246959 -0.0422707 0.165211
48 2 12.332 10.7887 15.1587 0.724205 0.341676 -0.452932
49 2 3.98488 0.06461 34.9897 0.0114714 0.127753 0.612061
50 2 6.27724 1.68391 34.8679 -0.12752 0.0632183 0.868842
51 2 5.94714 12.066 1.80184 -0.559566 1.84659 0.686345
52 2 4.19462 1.9507 1.88684 0.194783 -0.494475 0.587228
53 2 4.36294 12.3227 4.27054 0.0395893 0.228601 -0.454555
54 2 6.45991 2.21567 3.62504 -0.890345 0.380543 -0.101424
55 2 6.42252 12.4337 6.28824 -0.21491 -0.222816 0.304618
56 2 4.33312 1.95329 6.12204 -0.090903 0.293792 0.334356
57 2 4.19102 12.1661 8.26784 -0.293846 0.893208 0.169208
58 2 6.50564 2.24431 8.06024 -0.477471 -0.391675 0.0672948
59 2 6.52674 12.4409 10.3295 1.60773 -1.18713 -0.128406
60 2 4.59775 1.47693 10.3723 -1.01974 1.51394 -0.769938
61 2 4.04567 0.14431 13.1174 -0.380613 -1.34427 -1.10399
62 2 5.80066 2.38486 13.1562 -0.292951 -0.183347 0.217262
63 2 5.60314 12.317 15.0625 0.309967 0.00875064 1.14229
64 2 3.59117 2.29695 15.0668 -0.0694463 0.242208 -0.258179
65 2 4.03086 3.54747 35.4965 0.347781 0.517342 -0.642766
66 2 6.03015 5.99816 35.2789 -0.142731 0.417035 -0.328487
67 2 6.17303 4.90372 1.98244 0.170318 -1.97535 -0.390005
68 2 3.97951 6.48145 1.90964 -0.0247719 -0.495003 -0.329698
69 2 4.32763 4.06715 4.06094 -0.188573 -0.0725676 -0.0937155
70 2 6.07078 6.47173 4.07094 -0.0272549 0.593313 0.665065
71 2 6.29019 4.53827 6.36524 -0.69983 -0.991624 -0.791444
72 2 4.08787 6.34949 6.15244 -0.231756 -0.351659 -0.429488
73 2 4.2307 4.23801 8.29554 -0.829534 -1.49528 0.121466
74 2 5.92325 6.2223 8.64754 1.36544 1.07139 -0.352179
75 2 6.18995 3.85356 10.7538 -0.56519 0.694837 -0.324625
76 2 4.19062 6.25837 10.5817 -0.870448 0.0602322 0.996355
77 2 3.87217 4.69044 12.8752 0.487297 -0.252686 -0.0654063
78 2 6.42825 6.36724 13.1037 0.183733 -0.087815 -0.302314
79 2 5.9915 4.3494 15.2608 -0.0519496 -0.252122 -0.706991
80 2 4.60253 6.76956 15.1158 -0.394278 0.382675 0.0681936
81 2 4.39814 8.27087 35.2208 0.915677 -0.538246 0.245491
82 2 6.16794 10.4658 35.4841 -0.93679 -0.174955 -1.09782
83 2 5.96841 8.53669 1.93924 1.2352 -0.949023 0.0966527
84 2 3.97558 10.2003 2.01754 -0.411187 1.49682 -0.456336
85 2 3.99581 8.37968 4.25514 0.106479 0.0715849 -0.13053
86 2 6.64891 10.4957 4.19334 -1.43895 -1.57646 1.01139
87 2 6.22162 8.16428 6.33874 0.658726 0.242785 0.0303732
88 2 4.44231 10.3054 6.30764 -0.622986 0.0755363 -1.04436
89 2 3.97035 8.46222 8.35964 1.01595 0.77592 0.512629
90 2 6.27505 10.2694 8.35404 0.850855 -0.139074 0.552005
91 2 6.48511 8.37518 10.7122 -0.586603 -0.339877 0.0978946
92 2 4.10716 10.5078 10.5957 0.66036 -0.318063 0.190995
93 2 4.22827 8.22325 12.6285 0.149417 -0.0447454 0.052177
94 2 6.32405 10.4223 12.4997 -0.039889 0.479918 0.677739
95 2 7.19611 8.09902 15.3438 0.227662 -0.0656209 -0.669728
96 2 4.04853 9.98175 15.2266 0.240799 -0.723013 -0.361434
97 2 8.26167 12.2639 0.04436 -0.133415 1.4971 -1.24885
98 2 10.2826 1.73124 35.2877 -0.0917615 0.563629 0.485112
99 2 10.7986 12.3029 1.40734 0.193532 0.17885 0.68363
100 2 8.44868 2.00028 1.76304 0.420295 0.491699 -0.383282
101 2 8.1551 12.5148 3.68204 0.874127 1.73729 -0.164111
102 2 10.7225 2.09073 3.76514 -0.380041 -0.374069 -0.0473005
103 2 10.2897 0.20598 6.17554 1.66404 -0.36968 -1.6303
104 2 8.22012 1.84862 5.66934 0.369526 1.52444 0.47095
105 2 8.65675 12.3392 8.13144 -1.54253 -0.39929 1.20405
106 2 10.1416 2.25754 8.08764 0.254052 0.634516 -0.107832
107 2 10.3358 0.44785 10.2876 0.724432 -1.15373 -0.0273894
108 2 8.33686 2.25484 10.1895 -0.272901 0.222769 0.601469
109 2 7.98057 0.53058 12.7926 -0.252543 0.263637 -1.15381
110 2 10.3808 2.11707 12.3469 0.243189 0.48909 0.949985
111 2 10.3572 0.35823 14.9594 1.34569 0.650915 0.129369
112 2 8.41999 2.29137 14.9368 -1.0436 -0.25142 0.385285
113 2 8.16357 4.29416 35.7141 0.146195 -0.258526 0.0723458
114 2 9.85635 6.72023 35.1943 0.0551955 -0.951516 0.344232
115 2 10.5271 4.06768 1.51744 0.219109 -0.036743 -0.00961099
116 2 8.35375 6.63197 1.87624 0.33038 -0.280557 -0.627674
117 2 8.23952 4.55224 4.03974 -0.185977 -1.83737 -1.41806
118 2 10.5161 6.1356 4.20064 0.580808 0.218439 -1.3673
119 2 10.3302 4.20961 6.05934 -0.19117 -1.01436 0.262481
120 2 8.32565 6.24116 5.99254 0.335545 1.60397 1.66849
121 2 8.15537 4.5356 8.38774 0.471007 -0.314367 0.589102
122 2 10.3611 6.16571 8.24074 0.27067 0.393199 0.61652
123 2 10.5909 4.37905 10.5774 -1.5528 -1.4985 -1.02646
124 2 8.33075 6.19288 10.94 -0.649096 -0.441037 -0.516421
125 2 8.05869 3.93745 12.8511 0.454034 0.799867 -0.380378
126 2 10.4643 6.09199 12.6416 0.634927 0.176994 0.399141
127 2 10.7523 3.4911 15.0903 0.810188 0.560072 -0.495669
128 2 9.63061 6.4873 15.1394 -0.6244 0.387847 0.452425
129 2 7.89445 8.47436 35.2864 -0.0892922 -0.175644 0.212409
130 2 10.177 10.4048 35.1834 0.20467 -0.814569 0.395471
131 2 10.5863 8.69261 2.09214 -1.10577 -0.52595 -0.284998
132 2 8.20709 10.4248 1.90354 0.535958 -1.69207 -0.364775
133 2 8.37264 8.25309 4.00104 0.023198 0.513487 0.53002
134 2 10.0213 10.6031 3.94714 1.08551 0.258276 0.441199
135 2 10.6919 7.97915 6.16824 0.0203296 0.701277 0.610393
136 2 8.83818 10.1058 6.42364 -0.465653 -0.35218 0.29375
137 2 8.1426 8.00438 8.54054 0.258377 0.116841 -0.73969
138 2 11.034 10.6235 8.56284 -1.61308 -1.46348 -0.202064
139 2 10.164 8.35258 10.4327 0.631012 -0.384165 -0.374441
140 2 8.43718 10.5327 10.5158 0.420416 -0.049067 0.0472725
141 2 8.78635 8.33085 12.8293 -0.929376 0.113184 0.00655252
142 2 10.3585 11.3369 12.6869 -0.711856 -0.579088 -0.302508
143 2 9.97293 9.46698 14.9321 -0.367851 -0.0446032 0.504843
144 2 8.08718 11.5435 14.9582 -0.107113 -1.34739 0.479867
