ITEM: TIMESTEP
0
ITEM: NUMBER OF ATOMS
144
ITEM: BOX BOUNDS pp pp pp
0.0000000000000000e+00 1.2522000000000000e+01
0.0000000000000000e+00 1.2522000000000000e+01
0.0000000000000000e+00 3.5728673370000003e+01
ITEM: ATOMS id type x y z fx fy fz
1 1 1.28803 11.4725 35.004 -0.00408634 1.56973 0.0184096
2 1 1.72682 1.85177 34.8679 0.215932 -0.100961 0.455476
3 1 2.08989 0.01347 1.74224 0.262772 -0.31736 0.104932
4 1 0.18894 1.99567 1.45854 -0.692238 0.289769 0.227317
5 1 0.08888 12.3409 4.08564 -0.733172 1.14593 -1.15787
6 1 2.25158 1.72165 4.03954 -0.0364643 0.486653 -0.0191622
7 1 1.78235 0.01277 6.33364 0.653917 -0.24002 -0.691495
8 1 0.00515 2.38859 6.23824 -0.187946 -1.0182 -0.192007
9 1 12.3778 0.23404 8.30014 0.429702 1.11558 0.121134
10 1 2.06846 1.77259 8.40274 1.15377 0.91133 0.0268878
11 1 2.07921 12.312 10.7076 -0.251102 -0.38593 -0.425751
12 1 0.42047 2.14698 10.6153 -1.62041 -1.15116 -0.0798882
13 1 0.23474 0.0624 12.7571 0.341668 0.262025 0.342814
14 1 2.76007 2.10952 12.1064 -1.32282 1.83993 0.871207
15 1 2.44464 12.1645 15.4387 -0.495214 0.310559 -0.502862
16 1 0.76774 2.28514 14.505 0.174642 -0.101799 -0.000576718
17 1 0.27851 4.49589 35.3364 -1.65817 -1.34791 0.372151
18 1 2.23429 6.07036 35.2715 1.66217 1.53952 0.181128
19 1 2.09495 4.13512 1.70614 0.170092 -0.0978081 0.4769
20 1 12.2222 6.38004 2.02414 0.458368 -0.837897 0.106076
21 1 0.2177 3.94395 3.98854 -0.266818 0.161027 -0.748428
22 1 1.9655 6.01518 3.92374 0.246773 0.568347 0.248034
23 1 2.25192 4.0679 6.09394 0.486156 -0.168712 0.178789
24 1 0.11785 5.86452 6.46464 0.457877 1.26879 -0.997169
25 1 12.4296 4.08693 8.36994 0.10574 -0.651064 1.09563
26 1 2.39892 6.41536 8.26834 -1.81009 -1.0831 0.586521
27 1 2.07183 4.16952 10.282 1.2005 1.04914 -0.221368
28 1 12.5219 6.13915 10.4838 0.896853 1.69839 -0.50381
29 1 0.07012 4.13527 12.4863 -0.0883828 -0.631041 0.95502
30 1 1.55189 6.35899 12.9028 0.626847 1.08465 -1.04917
31 1 2.21362 4.92641 15.1136 0.679405 -0.685718 0.43115
32 1 12.2883 6.01703 14.9892 -0.522093 -0.0154654 0.0127429
33 1 12.0975 8.07891 35.62 -0.220277 0.150957 -0.597019
34 1 1.93272 9.00234 34.9944 0.167409 -0.805511 -0.226128
35 1 2.09491 8.3496 2.07394 -1.27769 -0.563564 -0.139091
36 1 0.19469 10.3331 1.65024 0.329049 0.536507 -0.0608879
37 1 0.00752 8.48414 4.05684 0.305204 -0.602897 -0.216923
38 1 2.15494 10.5624 4.06434 -0.118663 -0.0836419 0.342647
39 1 1.87832 8.53981 6.17184 -0.020371 -0.570221 -0.280243
40 1 12.0852 10.4565 5.87154 0.0496188 -0.216594 1.24367
41 1 0.18062 8.37917 8.49434 -0.811316 -1.00037 -0.0370964
42 1 1.90677 10.431 8.16314 0.124475 0.878005 0.605772
43 1 2.0052 8.63137 10.5904 0.149779 -0.637617 0.272685
44 1 12.1816 10.1301 10.9647 0.722859 0.771246 -0.0479033
45 1 12.0296 8.61877 13.1577 0.0550613 -0.620238 0.439775
46 1 2.31788 10.1982 12.9736 -0.525873 0.698198 -0.171843
47 1 1.70333 8.29182 14.9259 0.246959 -0.0422707 0.165211
48 1 12.332 10.7887 15.1587 0.724205 0.341676 -0.452932
49 1 3.98488 0.06461 34.9897 0.0114714 0.127753 0.612061
50 1 6.27724 1.68391 34.8679 -0.12752 0.0632183 0.868842
51 1 5.94714 12.066 1.80184 -0.559566 1.84659 0.686345
52 1 4.19462 1.9507 1.88684 0.194783 -0.494475 0.587228
53 1 4.36294 12.3227 4.27054 0.0395893 0.228601 -0.454555
54 1 6.45991 2.21567 3.62504 -0.890345 0.380543 -0.101424
55 1 6.42252 12.4337 6.28824 -0.21491 -0.222816 0.304618
56 1 4.33312 1.95329 6.12204 -0.090903 0.293792 0.334356
57 1 4.19102 12.1661 8.26784 -0.293846 0.893208 0.169208
58 1 6.50564 2.24431 8.06024 -0.477471 -0.391675 0.0672948
59 1 6.52674 12.4409 10.3295 1.60773 -1.18713 -0.128406
60 1 4.59775 1.47693 10.3723 -1.01974 1.51394 -0.769938
61 1 4.04567 0.14431 13.1174 -0.380613 -1.34427 -1.10399
62 1 5.80066 2.38486 13.1562 -0.292951 -0.183347 0.217262
63 1 5.60314 12.317 15.0625 0.309967 0.00875064 1.14229
64 1 3.59117 2.29695 15.0668 -0.0694463 0.242208 -0.258179
65 1 4.03086 3.54747 35.4965 0.347781 0.517342 -0.642766
66 1 6.03015 5.99816 35.2789 -0.142731 0.417035 -0.328487
67 1 6.17303 4.90372 1.98244 0.170318 -1.97535 -0.390005
68 1 3.97951 6.48145 1.90964 -0.0247719 -0.495003 -0.329698
69 1 4.32763 4.06715 4.06094 -0.188573 -0.0725676 -0.0937155
70 1 6.07078 6.47173 4.07094 -0.0272549 0.593313 0.665065
71 1 6.29019 4.53827 6.36524 -0.69983 -0.991624 -0.791444
72 1 4.08787 6.34949 6.15244 -0.231756 -0.351659 -0.429488
73 1 4.2307 4.23801 8.29554 -0.829534 -1.49528 0.121466
74 1 5.92325 6.2223 8.64754 1.36544 1.07139 -0.352179
75 1 6.18995 3.85356 10.7538 -0.56519 0.694837 -0.324625
76 1 4.19062 6.25837 10.5817 -0.870448 0.0602322 0.996355
77 1 3.87217 4.69044 12.8752 0.487297 -0.252686 -0.0654063
78 1 6.42825 6.36724 13.1037 0.183733 -0.087815 -0.302314
79 1 5.9915 4.3494 15.2608 -0.0519496 -0.252122 -0.706991
80 1 4.60253 6.76956 15.1158 -0.394278 0.382675 0.0681936
81 1 4.39814 8.27087 35.2208 0.915677 -0.538246 0.245491
82 1 6.16794 10.4658 35.4841 -0.93679 -0.174955 -1.09782
83 1 5.96841 8.53669 1.93924 1.2352 -0.949023 0.0966527
84 1 3.97558 10.2003 2.01754 -0.411187 1.49682 -0.456336
85 1 3.99581 8.37968 4.25514 0.106479 0.0715849 -0.13053
86 1 6.64891 10.4957 4.19334 -1.43895 -1.57646 1.01139
87 1 6.22162 8.16428 6.33874 0.658726 0.242785 0.0303732
88 1 4.44231 10.3054 6.30764 -0.622986 0.0755363 -1.04436
89 1 3.97035 8.46222 8.35964 1.01595 0.77592 0.512629
90 1 6.27505 10.2694 8.35404 0.850855 -0.139074 0.552005
91 1 6.48511 8.37518 10.7122 -0.586603 -0.339877 0.0978946
92 1 4.10716 10.5078 10.5957 0.66036 -0.318063 0.190995
93 1 4.22827 8.22325 12.6285 0.149417 -0.0447454 0.052177
94 1 6.32405 10.4223 12.4997 -0.039889 0.479918 0.677739
95 1 7.19611 8.09902 15.3438 0.227662 -0.0656209 -0.669728
96 1 4.04853 9.98175 15.2266 0.240799 -0.723013 -0.361434
97 1 8.26167 12.2639 0.04436 -0.133415 1.4971 -1.24885
98 1 10.2826 1.73124 35.2877 -0.0917615 0.563629 0.485112
99 1 10.7986 12.3029 1.40734 0.193532 0.17885 0.68363
100 1 8.44868 2.00028 1.76304 0.420295 0.491699 -0.383282
101 1 8.1551 12.5148 3.68204 0.874127 1.73729 -0.164111
102 1 10.7225 2.09073 3.76514 -0.380041 -0.374069 -0.0473005
103 1 10.2897 0.20598 6.17554 1.66404 -0.36968 -1.6303
104 1 8.22012 1.84862 5.66934 0.369526 1.52444 0.47095
105 1 8.65675 12.3392 8.13144 -1.54253 -0.39929 1.20405
106 1 10.1416 2.25754 8.08764 0.254052 0.634516 -0.107832
107 1 10.3358 0.44785 10.2876 0.724432 -1.15373 -0.0273894
108 1 8.33686 2.25484 10.1895 -0.272901 0.222769 0.601469
109 1 7.98057 0.53058 12.7926 -0.252543 0.263637 -1.15381
110 1 10.3808 2.11707 12.3469 0.243189 0.48909 0.949985
111 1 10.3572 0.35823 14.9594 1.34569 0.650915 0.129369
112 1 8.41999 2.29137 14.9368 -1.0436 -0.25142 0.385285
113 1 8.16357 4.29416 35.7141 0.146195 -0.258526 0.0723458
114 1 9.85635 6.72023 35.1943 0.0551955 -0.951516 0.344232
115 1 10.5271 4.06768 1.51744 0.219109 -0.036743 -0.00961099
116 1 8.35375 6.63197 1.87624 0.33038 -0.280557 -0.627674
117 1 8.23952 4.55224 4.03974 -0.185977 -1.83737 -1.41806
118 1 10.5161 6.1356 4.20064 0.580808 0.218439 -1.3673
119 1 10.3302 4.20961 6.05934 -0.19117 -1.01436 0.262481
120 1 8.32565 6.24116 5.99254 0.335545 1.60397 1.66849
121 1 8.15537 4.5356 8.38774 0.471007 -0.314367 0.589102
122 1 10.3611 6.16571 8.24074 0.27067 0.393199 0.61652
123 1 10.5909 4.37905 10.5774 -1.5528 -1.4985 -1.02646
124 1 8.33075 6.19288 10.94 -0.649096 -0.441037 -0.516421
125 1 8.05869 3.93745 12.8511 0.454034 0.799867 -0.380378
126 1 10.4643 6.09199 12.6416 0.634927 0.176994 0.399141
127 1 10.7523 3.4911 15.0903 0.810188 0.560072 -0.495669
128 1 9.63061 6.4873 15.1394 -0.6244 0.387847 0.452425
129 1 7.89445 8.47436 35.2864 -0.0892922 -0.175644 0.212409
130 1 10.177 10.4048 35.1834 0.20467 -0.814569 0.395471
131 1 10.5863 8.69261 2.09214 -1.10577 -0.52595 -0.284998
132 1 8.20709 10.4248 1.90354 0.535958 -1.69207 -0.364775
133 1 8.37264 8.25309 4.00104 0.023198 0.513487 0.53002
134 1 10.0213 10.6031 3.94714 1.08551 0.258276 0.441199
135 1 10.6919 7.97915 6.16824 0.0203296 0.701277 0.610393
136 1 8.83818 10.1058 6.42364 -0.465653 -0.35218 0.29375
137 1 8.1426 8.00438 8.54054 0.258377 0.116841 -0.73969
138 1 11.034 10.6235 8.56284 -1.61308 -1.46348 -0.202064
139 1 10.164 8.35258 10.4327 0.631012 -0.384165 -0.374441
140 1 8.43718 10.5327 10.5158 0.420416 -0.049067 0.0472725
141 1 8.78635 8.33085 12.8293 -0.929376 0.113184 0.00655252
142 1 10.3585 11.3369 12.6869 -0.711856 -0.579088 -0.302508
143 1 9.97293 9.46698 14.9321 -0.367851 -0.0446032 0.504843
144 1 8.08718 11.5435 14.9582 -0.107113 -1.34739 0.479867
ITEM: TIMESTEP
10
ITEM: NUMBER OF ATOMS
144
ITEM: BOX BOUNDS pp pp pp
0.0000000000000000e+00 1.2522000000000000e+01
0.0000000000000000e+00 1.2522000000000000e+01
0.0000000000000000e+00 3.5728673370000003e+01
ITEM: ATOMS id type x y z fx fy fz
1 1 1.30042 11.4777 35.0072 -0.000566243 1.60135 -0.00573568
2 1 1.70508 1.86089 34.8558 0.303602 -0.155653 0.445034
3 1 2.08157 -0.0195875 1.76155 0.178246 -0.0960508 0.112023
4 1 0.189482 2.01221 1.44631 -0.574562 0.127076 0.271923
5 1 0.0844014 12.3562 4.08469 -0.848984 1.24159 -1.31019
6 1 2.28211 1.72965 4.07304 -0.159868 0.558939 -0.207597
7 1 1.76222 0.0078716 6.30521 0.725102 -0.0452274 -0.439892
8 1 -0.0078551 2.34944 6.2047 0.00117469 -0.909009 -0.0518159
9 1 12.369 0.202056 8.29069 0.478689 1.12602 0.187354
10 1 2.07934 1.76156 8.42733 0.922054 0.809538 -0.0530659
11 1 2.05503 12.3433 10.7248 -0.0343579 -0.755084 -0.48505
12 1 0.383044 2.1344 10.6225 -1.36841 -0.754789 -0.076885
13 1 0.208139 0.0829501 12.7724 0.317294 0.196608 0.356218
14 1 2.74306 2.09736 12.136 -1.46115 2.1061 0.570822
15 1 2.46816 12.1405 15.4109 -0.658584 0.497537 -0.429289
16 1 0.769918 2.28338 14.5018 0.220281 -0.0703158 0.0380298
17 1 0.241356 4.45895 35.3055 -0.971777 -0.873271 0.390086
18 1 2.25659 6.08053 35.2944 1.02071 1.04525 0.169901
19 1 2.0708 4.16276 1.7189 0.22144 -0.132663 0.270878
20 1 12.2387 6.34451 2.02443 0.455524 -0.612432 0.0350668
21 1 0.213176 3.92788 3.99375 -0.297827 0.127842 -0.758719
22 1 1.96049 5.98184 3.94314 0.348925 0.779405 0.150393
23 1 2.28466 4.08731 6.09586 0.213557 -0.336537 0.189505
24 1 0.106814 5.84641 6.47184 0.626288 1.47202 -1.21783
25 1 12.4392 4.07528 8.3432 0.206297 -0.918529 1.3042
26 1 2.36448 6.39844 8.28409 -1.47488 -0.778267 0.413227
27 1 2.05958 4.19469 10.2966 1.14021 0.595189 -0.163272
28 1 12.5427 6.1097 10.4627 1.01897 2.03847 -0.514684
29 1 0.0825786 4.16432 12.5136 -0.131128 -1.01421 0.805837
30 1 1.52009 6.37314 12.9233 0.826513 1.35698 -1.19857
31 1 2.24164 4.95258 15.0857 0.499098 -0.729562 0.600701
32 1 12.2598 6.01762 14.9692 -0.152892 -0.112576 0.208826
33 1 12.0817 8.10884 35.6483 -0.178558 -0.0204053 -0.692188
34 1 1.93614 9.00948 34.9674 0.252993 -1.00412 -0.0982799
35 1 2.11973 8.36036 2.09333 -1.64211 -0.400387 -0.201401
36 1 0.161803 10.339 1.62784 0.405266 0.397747 0.0416
37 1 0.00928126 8.50492 4.06303 0.264886 -0.572036 -0.449082
38 1 2.13431 10.5932 4.08825 0.0369176 -0.330452 0.295565
39 1 1.85787 8.50934 6.18186 0.103871 -0.524707 -0.246636
40 1 12.0806 10.4819 5.88364 0.186349 -0.412074 1.25358
41 1 0.162106 8.40895 8.51901 -0.572807 -1.07428 -0.070665
42 1 1.90056 10.4634 8.1324 0.183436 0.549205 0.689733
43 1 1.98665 8.59964 10.6184 0.212784 -0.438703 0.258181
44 1 12.1526 10.1485 10.9484 0.892444 0.729672 0.150238
45 1 12.0147 8.62768 13.168 0.133591 -0.521505 0.347439
46 1 2.30764 10.2264 12.9899 -0.436874 0.5849 -0.281174
47 1 1.72166 8.30885 14.9499 0.182676 -0.0612252 0.0773881
48 1 12.3522 10.7757 15.1738 0.534178 0.302502 -0.517409
49 1 4.00211 0.0292193 34.9589 -0.104961 0.163747 0.633915
50 1 6.26291 1.67245 34.905 -0.114854 0.0739436 0.84978
51 1 5.96876 12.0416 1.83017 -0.585993 2.08715 0.773853
52 1 4.17366 1.93703 1.85564 0.21462 -0.51434 0.672891
53 1 4.35005 12.3561 4.27592 0.183935 0.0932808 -0.495148
54 1 6.48068 2.20544 3.6124 -0.97375 0.430044 -0.0772758
55 1 6.39078 12.4043 6.31069 0.0856906 0.115033 0.151476
56 1 4.32348 1.96529 6.13092 0.0308269 0.319086 0.410886
57 1 4.17401 12.2017 8.2383 -0.232329 0.744257 0.370307
58 1 6.5102 2.24612 8.085 -0.49746 -0.335243 -0.0728061
59 1 6.56004 12.4259 10.3392 1.24268 -0.887274 -0.127439
60 1 4.57997 1.4499 10.3655 -0.808971 1.31965 -0.637031
61 1 4.07373 0.169373 13.1055 -0.166967 -1.74562 -0.947633
62 1 5.76862 2.36382 13.1502 0.101983 0.033337 0.126963
63 1 5.60864 12.2846 15.082 -0.0374281 0.108661 1.02905
64 1 3.61677 2.26589 15.0587 -0.18333 0.325522 -0.137282
65 1 4.03586 3.54649 35.4834 0.241473 0.558647 -0.565481
66 1 6.06299 5.96312 35.3052 -0.309678 0.701038 -0.751949
67 1 6.19578 4.88755 1.95343 -0.0723968 -1.89046 0.133532
68 1 3.9799 6.51186 1.87597 0.259605 -0.753292 -0.213043
69 1 4.34619 4.06851 4.0467 -0.135387 -0.110998 -0.131573
70 1 6.06704 6.46721 4.06021 -0.182399 0.575137 0.576424
71 1 6.31377 4.55502 6.37599 -0.755457 -1.04882 -0.654986
72 1 4.08567 6.34189 6.13692 -0.242971 -0.122556 -0.311586
73 1 4.22646 4.22324 8.27304 -0.612243 -1.22105 0.218164
74 1 5.92726 6.25854 8.65347 1.28234 0.715412 -0.577089
75 1 6.15611 3.85919 10.7542 -0.530509 0.600413 -0.323862
76 1 4.17935 6.27131 10.5519 -0.983602 -0.0496927 1.15463
77 1 3.87523 4.6687 12.8624 0.454911 -0.155354 -0.216899
78 1 6.39706 6.37375 13.1339 0.435241 -0.0872075 -0.484146
79 1 5.98912 4.34615 15.2352 -0.0300566 -0.2801 -0.669285
80 1 4.56871 6.75732 15.0879 -0.442819 0.448174 0.253357
81 1 4.42444 8.25563 35.2192 0.662471 -0.512893 0.211578
82 1 6.13331 10.4674 35.5081 -0.735377 -0.364342 -1.31043
83 1 5.99863 8.54536 1.93612 0.866383 -0.794243 0.137756
84 1 3.96523 10.2335 2.03404 -0.181109 1.27555 -0.463065
85 1 4.001 8.40594 4.22502 0.15112 -0.0114631 0.201037
86 1 6.66966 10.5169 4.17722 -1.38704 -1.49683 1.14997
87 1 6.2363 8.16916 6.34414 0.540569 0.209124 -0.063156
88 1 4.43524 10.3309 6.3159 -0.662688 -0.257596 -1.12077
89 1 3.98558 8.45804 8.36351 0.681169 0.658425 0.428998
90 1 6.30196 10.2714 8.33672 0.700947 -0.0752714 0.599394
91 1 6.45895 8.3635 10.6894 -0.599807 -0.0939805 0.371703
92 1 4.13964 10.4953 10.6024 0.311304 -0.163378 0.102264
93 1 4.21282 8.20343 12.6125 0.0615702 0.125392 0.0580147
94 1 6.32629 10.4459 12.5213 0.0119903 0.294237 0.488691
95 1 7.21218 8.11175 15.3625 0.193698 -0.0945374 -0.729757
96 1 4.04373 9.99547 15.2464 0.348058 -0.991311 -0.36187
97 1 8.25142 12.2559 0.0498259 -0.165674 1.43128 -1.3042
98 1 10.3089 1.69968 35.289 -0.0722206 0.626464 0.350165
99 1 10.7752 12.3105 1.42474 0.215142 0.147984 0.819036
100 1 8.45485 1.99217 1.73335 0.39004 0.539282 -0.370287
101 1 8.18841 12.5464 3.67957 0.923827 1.39664 -0.162001
102 1 10.6994 2.09086 3.76915 -0.385038 -0.37857 -0.0536318
103 1 10.3158 0.179866 6.16977 1.21423 -0.205962 -1.29312
104 1 8.23576 1.85142 5.68798 0.216297 1.30338 0.545959
105 1 8.63551 12.3574 8.14219 -1.23913 -0.239148 0.918519
106 1 10.1655 2.2922 8.07033 0.0974526 0.21401 0.115528
107 1 10.3425 0.445098 10.2908 0.642461 -0.964068 -0.110555
108 1 8.33745 2.27494 10.1807 -0.154937 0.168703 0.6225
109 1 7.99656 0.522261 12.7887 -0.320577 0.47201 -1.23801
110 1 10.3562 2.14957 12.3445 0.251611 0.44889 0.860935
111 1 10.3675 0.389486 14.9491 1.31374 0.452349 0.0817162
112 1 8.42305 2.2932 14.9481 -1.02357 -0.0793416 0.233189
113 1 8.17429 4.28203 35.728 0.32938 -0.369875 0.0248827
114 1 9.8288 6.68253 35.2104 0.471258 -0.923781 0.20746
115 1 10.5599 4.0333 1.53042 0.122644 0.0168448 -0.0385081
116 1 8.3638 6.65733 1.84221 0.216993 -0.354626 -0.439666
117 1 8.20424 4.5759 4.0069 0.0708334 -1.80336 -1.30874
118 1 10.5337 6.15486 4.19699 0.414661 -0.13333 -1.33187
119 1 10.3545 4.20094 6.08818 -0.379096 -0.746155 -0.182159
120 1 8.34749 6.22626 5.98529 0.424889 1.61324 1.70027
121 1 8.17417 4.5681 8.42235 0.286865 -0.391065 0.488481
122 1 10.3752 6.17414 8.22076 0.254554 0.460912 0.704797
123 1 10.6131 4.40602 10.5833 -1.7669 -1.73578 -1.10955
124 1 8.29872 6.17216 10.9186 -0.45565 -0.326117 -0.238068
125 1 8.04658 3.94629 12.837 0.329104 0.636849 -0.254363
126 1 10.4679 6.05785 12.6696 0.406685 0.206964 0.107034
127 1 10.7743 3.49223 15.1223 0.673778 0.461973 -0.511041
128 1 9.64575 6.50396 15.1365 -0.901692 0.460793 0.659118
129 1 7.90728 8.45937 35.2805 -0.334548 0.172971 0.187203
130 1 10.1915 10.4266 35.1825 0.197737 -0.805772 0.367763
131 1 10.5493 8.6815 2.07822 -0.954637 -0.492428 -0.000549383
132 1 8.21133 10.4064 1.89914 0.749131 -1.59794 -0.207402
133 1 8.34485 8.22534 4.00295 0.118052 0.713931 0.545343
134 1 10.0441 10.6132 3.9744 0.77987 0.077156 0.195722
135 1 10.7118 7.97249 6.14502 -0.0240093 0.865317 0.74008
136 1 8.84207 10.0872 6.45298 -0.458803 -0.323641 0.225814
137 1 8.16066 8.01849 8.56988 0.304195 0.09161 -0.854405
138 1 11.0048 10.5861 8.54732 -1.71077 -1.15191 -0.237001
139 1 10.1965 8.32301 10.4339 0.572009 -0.503747 -0.334797
140 1 8.46096 10.5072 10.4941 0.354807 -0.115477 0.105643
141 1 8.81523 8.30152 12.816 -1.066 0.0358618 -0.131772
142 1 10.3374 11.3507 12.6696 -0.666013 -0.611978 -0.1751
143 1 9.93981 9.47351 14.9068 -0.178552 0.137793 0.643339
144 1 8.07477 11.5601 14.9447 0.27453 -1.4064 0.610907
ITEM: TIMESTEP
20
ITEM: NUMBER OF ATOMS
144
ITEM: BOX BOUNDS pp pp pp
0.0000000000000000e+00 1.2522000000000000e+01
0.0000000000000000e+00 1.2522000000000000e+01
0.0000000000000000e+00 3.5728673370000003e+01
ITEM: ATOMS id type x y z fx fy fz
1 1 1.31282 11.4906 35.0104 0.0246473 1.49133 -0.0312998
2 1 1.68481 1.86927 34.8458 0.36734 -0.184793 0.424636
3 1 2.07413 12.4689 1.78141 0.084481 0.134058 0.108986
4 1 0.187221 2.02936 1.43541 -0.429035 -0.0493319 0.31413
5 1 0.0757762 12.3775 4.07735 -0.937677 1.24509 -1.40988
6 1 2.31184 1.74039 4.10552 -0.317083 0.66469 -0.395341
7 1 1.74564 0.00274879 6.27463 0.784944 0.140561 -0.178819
8 1 12.5011 2.30585 6.1709 0.135833 -0.769612 0.0713706
9 1 12.3625 0.175543 8.28216 0.44603 1.01518 0.265557
10 1 2.09472 1.75451 8.45167 0.680996 0.743831 -0.106021
11 1 2.03066 12.371 10.7396 0.114696 -1.00791 -0.508938
12 1 0.338927 2.11812 10.6293 -1.10186 -0.372476 -0.0959902
13 1 0.183087 0.10445 12.7894 0.26914 0.107996 0.358555
14 1 2.71893 2.09543 12.1684 -1.49028 2.16888 0.330438
15 1 2.48844 12.1189 15.3809 -0.819991 0.709415 -0.355441
16 1 0.773171 2.28127 14.4987 0.25848 -0.0468085 0.0991228
17 1 0.19939 4.4177 35.2766 -0.424884 -0.492177 0.420302
18 1 2.28393 6.09585 35.3182 0.487399 0.629347 0.101743
19 1 2.04773 4.18975 1.73299 0.267131 -0.176064 0.0651786
20 1 12.2574 6.30598 2.02488 0.455318 -0.393268 -0.0714589
21 1 0.207196 3.91243 3.99525 -0.322617 0.093737 -0.73278
22 1 1.95718 5.95231 3.96327 0.420838 0.966488 0.0761148
23 1 2.31844 4.10508 6.09871 -0.0623415 -0.480472 0.186486
24 1 0.0988334 5.83547 6.47311 0.762368 1.56373 -1.35274
25 1 12.4498 4.05918 8.32282 0.331322 -1.0742 1.4066
26 1 2.32284 6.37773 8.30186 -1.10065 -0.457386 0.236439
27 1 2.05291 4.22276 10.3103 1.08077 0.113467 -0.0917478
28 1 0.0463039 6.09017 10.4391 0.954639 2.21705 -0.470627
29 1 0.0943926 4.18843 12.5447 -0.17337 -1.30688 0.581748
30 1 1.49232 6.39392 12.9379 0.984797 1.57726 -1.28572
31 1 2.27208 4.97517 15.0608 0.282554 -0.763348 0.71369
32 1 12.2306 6.01767 14.9502 0.257742 -0.192929 0.410882
33 1 12.0651 8.13867 35.6732 -0.100219 -0.199335 -0.777196
34 1 1.94077 9.01175 34.9399 0.289066 -1.04975 0.0203887
35 1 2.13655 8.36916 2.11172 -1.88404 -0.234452 -0.258728
36 1 0.130893 10.347 1.60565 0.446065 0.285811 0.143691
37 1 0.0123383 8.5229 4.06704 0.221075 -0.50781 -0.628577
38 1 2.11386 10.6223 4.11361 0.173192 -0.573288 0.230324
39 1 1.83793 8.47631 6.19068 0.204079 -0.45765 -0.164887
40 1 12.077 10.5053 5.90185 0.402669 -0.610967 1.18878
41 1 0.140815 8.43346 8.54333 -0.273204 -1.12525 -0.115703
42 1 1.89523 10.4985 8.10503 0.201739 0.189985 0.74392
43 1 1.96913 8.56576 10.6476 0.238861 -0.279029 0.245868
44 1 12.128 10.1704 10.9328 1.01692 0.69153 0.317803
45 1 12.0005 8.63404 13.18 0.189306 -0.415005 0.250531
46 1 2.29525 10.2575 13.0048 -0.36323 0.459998 -0.381928
47 1 1.74089 8.32558 14.9743 0.12604 -0.0812558 -0.00633657
48 1 12.3751 10.7643 15.1863 0.372017 0.262209 -0.576151
49 1 4.01883 12.5166 34.9312 -0.195539 0.18602 0.642199
50 1 6.24801 1.66135 34.9463 -0.104375 0.0886724 0.825626
51 1 5.98756 12.0274 1.86222 -0.506091 2.1912 0.73455
52 1 4.15375 1.92086 1.82771 0.210132 -0.495895 0.698286
53 1 4.33807 12.39 4.27888 0.344734 -0.0506918 -0.520394
54 1 6.49669 2.19731 3.5994 -1.00706 0.459423 -0.0434005
55 1 6.35946 12.3755 6.33388 0.378654 0.428823 -0.0165434
56 1 4.314 1.97885 6.1418 0.162053 0.325933 0.477463
57 1 4.15586 12.241 8.21055 -0.176099 0.580351 0.503397
58 1 6.51232 2.24629 8.1094 -0.514283 -0.284437 -0.195103
59 1 6.59938 12.4066 10.3483 0.753834 -0.515852 -0.119518
60 1 4.55825 1.42932 10.3557 -0.525906 1.08606 -0.460226
61 1 4.10093 0.185904 13.089 -0.0414379 -2.08918 -0.831712
62 1 5.73709 2.34297 13.1448 0.522058 0.289806 0.0186685
63 1 5.61394 12.2528 15.1065 -0.403788 0.240586 0.87081
64 1 3.64147 2.23643 15.0499 -0.288614 0.384169 0.00263628
65 1 4.04206 3.54824 35.4676 0.151304 0.572152 -0.461204
66 1 6.09431 5.93152 35.3278 -0.467368 0.989216 -1.20609
67 1 6.21818 4.86212 1.92511 -0.30771 -1.81092 0.706851
68 1 3.98156 6.53859 1.84127 0.52369 -0.950346 -0.0691337
69 1 4.36407 4.06934 4.03183 -0.0971193 -0.139014 -0.163962
70 1 6.06242 6.46549 4.05228 -0.312283 0.51069 0.44522
71 1 6.33368 4.56665 6.38354 -0.749382 -1.04938 -0.513508
72 1 4.08229 6.3337 6.11988 -0.221101 0.10201 -0.169747
73 1 4.21923 4.20249 8.25163 -0.378894 -0.924759 0.336794
74 1 5.93752 6.29826 8.65661 1.10988 0.329092 -0.740643
75 1 6.11968 3.86776 10.753 -0.491604 0.506433 -0.316755
76 1 4.16331 6.28401 10.5277 -1.00609 -0.156462 1.16888
77 1 3.88052 4.64619 12.8485 0.432883 -0.069116 -0.332611
78 1 6.368 6.37983 13.1616 0.679732 -0.0839066 -0.655745
79 1 5.9866 4.34152 15.2062 -0.0115281 -0.303377 -0.61918
80 1 4.53274 6.74728 15.0613 -0.484082 0.520893 0.444047
81 1 4.45399 8.23789 35.2187 0.427393 -0.471239 0.15496
82 1 6.09509 10.4672 35.5257 -0.535959 -0.399458 -1.37097
83 1 6.03309 8.55013 1.93367 0.479479 -0.651664 0.178177
84 1 3.95397 10.2729 2.04826 0.00238382 0.986669 -0.467683
85 1 4.00693 8.43214 4.19587 0.2101 -0.0837631 0.471223
86 1 6.68366 10.5309 4.16671 -1.20286 -1.28982 1.22047
87 1 6.25362 8.17508 6.34923 0.411794 0.185134 -0.145826
88 1 4.42492 10.3551 6.31871 -0.702131 -0.565643 -1.1126
89 1 4.00415 8.45708 8.36947 0.34431 0.518941 0.328505
90 1 6.33228 10.2731 8.32233 0.528311 -0.0408374 0.61844
91 1 6.42988 8.35136 10.6685 -0.577628 0.122969 0.593412
92 1 4.17368 10.4819 10.6097 0.0624632 -0.0546309 0.0425423
93 1 4.19767 8.18422 12.5968 -0.0190466 0.287014 0.0761277
94 1 6.32857 10.4709 12.5452 0.0420163 0.151554 0.341609
95 1 7.2292 8.12403 15.3775 0.163719 -0.109591 -0.771342
96 1 4.04063 10.0043 15.2645 0.464563 -1.2647 -0.351559
97 1 8.24036 12.2548 0.0489419 -0.201428 1.22991 -1.26442
98 1 10.3348 1.67118 35.2921 -0.0415396 0.681502 0.200394
99 1 10.7529 12.3188 1.44613 0.205666 0.100118 0.935298
100 1 8.46291 1.98669 1.70186 0.330884 0.579634 -0.3289
101 1 8.2262 0.0628203 3.67632 0.882666 0.900169 -0.135576
102 1 10.6744 2.08915 3.77291 -0.390008 -0.36864 -0.0544644
103 1 10.3478 0.152774 6.15769 0.65096 0.0226506 -0.896501
104 1 8.25247 1.8606 5.70927 0.0977293 1.09094 0.597338
105 1 8.60822 12.3743 8.15741 -0.870603 -0.0828436 0.570551
106 1 10.1897 2.32787 8.05361 -0.0838756 -0.271124 0.403972
107 1 10.3523 0.437638 10.2935 0.535861 -0.743949 -0.168487
108 1 8.33728 2.29586 10.175 -0.0288078 0.0929384 0.646899
109 1 8.01098 0.516239 12.7788 -0.372935 0.641826 -1.22409
110 1 10.3328 2.18425 12.3463 0.254307 0.370136 0.752595
111 1 10.3843 0.42296 14.9391 1.21488 0.274979 0.0161828
112 1 8.42112 2.29463 14.9604 -0.952176 0.068913 0.0849881
113 1 8.18662 4.26808 0.0133045 0.508849 -0.483319 -0.0507974
114 1 9.80355 6.64032 35.2273 0.857516 -0.89178 -0.0110633
115 1 10.5933 3.99902 1.54322 0.00189434 0.0985215 -0.0594192
116 1 8.37487 6.68094 1.80608 0.0387048 -0.436459 -0.119189
117 1 8.16931 4.59079 3.96773 0.317907 -1.61802 -1.02845
118 1 10.5532 6.17348 4.18684 0.222502 -0.428146 -1.24391
119 1 10.3769 4.18865 6.11611 -0.523717 -0.406963 -0.642188
120 1 8.37139 6.21917 5.98629 0.486196 1.42154 1.53974
121 1 8.19438 4.59868 8.45931 0.105632 -0.477541 0.317637
122 1 10.3906 6.18481 8.20422 0.24815 0.50059 0.776004
123 1 10.6267 4.42456 10.5837 -1.814 -1.79453 -1.11006
124 1 8.26446 6.14987 10.8959 -0.28449 -0.180607 0.0367309
125 1 8.03609 3.95825 12.8216 0.214724 0.480964 -0.131358
126 1 10.4736 6.02472 12.6981 0.190103 0.195568 -0.215355
127 1 10.7996 3.49561 15.1517 0.495701 0.340644 -0.52454
128 1 9.65646 6.52287 15.1367 -1.18567 0.541623 0.846379
129 1 7.9185 8.44519 35.2755 -0.51887 0.457948 0.134327
130 1 10.2069 10.4445 35.1833 0.167376 -0.755855 0.359201
131 1 10.5075 8.66798 2.06429 -0.748389 -0.435225 0.256388
132 1 8.2192 10.3803 1.8937 0.850565 -1.33223 -0.118531
133 1 8.31763 8.20105 4.00752 0.206758 0.832662 0.52936
134 1 10.0706 10.6236 4.00261 0.467707 -0.0652477 -0.0555319
135 1 10.7315 7.97006 6.12541 -0.0726361 0.983698 0.836614
136 1 8.8437 10.067 6.48341 -0.453022 -0.268935 0.131776
137 1 8.18021 8.03305 8.59505 0.351662 0.0734015 -0.911433
138 1 10.9671 10.543 8.53064 -1.72767 -0.724316 -0.25186
139 1 10.2317 8.29099 10.4334 0.513511 -0.602392 -0.262071
140 1 8.48649 10.4811 10.4729 0.323209 -0.200863 0.166701
141 1 8.8389 8.27236 12.8019 -1.15303 -0.0361438 -0.268764
142 1 10.313 11.3615 12.6515 -0.584098 -0.640327 -0.0315716
143 1 9.90582 9.48069 14.8846 -0.000961585 0.278845 0.745931
144 1 8.0637 11.5699 14.9341 0.6568 -1.37358 0.661117
ITEM: TIMESTEP
30
ITEM: NUMBER OF ATOMS
144
ITEM: BOX BOUNDS pp pp pp
0.0000000000000000e+00 1.2522000000000000e+01
0.0000000000000000e+00 1.2522000000000000e+01
0.0000000000000000e+00 3.5728673370000003e+01
ITEM: ATOMS id type x y z fx fy fz
1 1 1.32534 11.5108 35.0134 0.0634796 1.26096 -0.0594582
2 1 1.66635 1.87673 34.8379 0.415135 -0.195243 0.396852
3 1 2.06709 12.4361 1.80178 -0.023922 0.370078 0.0946039
4 1 0.182873 2.04626 1.42606 -0.253709 -0.241768 0.354103
5 1 0.0625911 12.4049 4.06313 -0.962456 1.15093 -1.44777
6 1 2.33999 1.7544 4.13605 -0.499486 0.794743 -0.575997
7 1 1.7329 -0.00168928 6.24319 0.824804 0.309651 0.0702635
8 1 12.4888 2.25854 6.13747 0.218675 -0.587359 0.174442
9 1 12.3582 0.153992 8.27493 0.364606 0.840028 0.345332
10 1 2.11343 1.75112 8.47548 0.425233 0.722486 -0.130854
11 1 2.00685 12.3938 10.752 0.212939 -1.14592 -0.490667
12 1 0.289439 2.1 10.6356 -0.844871 -0.0509806 -0.128563
13 1 0.159363 0.126456 12.8082 0.206655 -0.000925114 0.341809
14 1 2.68758 2.10402 12.2024 -1.38313 1.99325 0.159459
15 1 2.50472 12.1008 15.3493 -0.949092 0.910654 -0.279297
16 1 0.777685 2.27894 14.4962 0.288553 -0.0308968 0.189896
17 1 0.155298 4.37402 35.2497 -0.0562867 -0.227622 0.439404
18 1 2.3137 6.11428 35.3423 0.0849239 0.319271 -0.0205573
19 1 2.02599 4.21585 1.74739 0.316659 -0.229389 -0.126668
20 1 12.2783 6.26555 2.02497 0.453797 -0.181918 -0.196266
21 1 0.199645 3.89746 3.99318 -0.336257 0.0635184 -0.671543
22 1 1.95591 5.92752 3.98378 0.458603 1.11715 0.0196266
23 1 2.35188 4.12049 6.10246 -0.340906 -0.601596 0.167938
24 1 0.0945679 5.83213 6.4678 0.840727 1.50647 -1.36464
25 1 12.462 4.0379 8.30928 0.470178 -1.0755 1.3729
26 1 2.27583 6.35477 8.32077 -0.728236 -0.167061 0.0521832
27 1 2.05156 4.25137 10.3236 1.04728 -0.356192 -0.00805752
28 1 0.0765048 6.08143 10.4133 0.662027 2.20547 -0.360028
29 1 0.105362 4.20618 12.5787 -0.186835 -1.46501 0.311788
30 1 1.46937 6.42235 12.9462 1.0763 1.68107 -1.29003
31 1 2.30387 4.99401 15.0393 0.0263709 -0.798927 0.747045
32 1 12.2027 6.01679 14.9331 0.667888 -0.241555 0.604777
33 1 12.0481 8.1675 35.6942 -0.0029725 -0.377865 -0.847347
34 1 1.9468 9.00895 34.9125 0.276623 -0.960263 0.133442
35 1 2.14419 8.37679 2.12884 -1.97174 -0.0934797 -0.311771
36 1 0.102177 10.3563 1.58417 0.463919 0.205224 0.238594
37 1 0.0164747 8.53839 4.06799 0.17442 -0.423319 -0.748997
38 1 2.09426 10.6487 4.14006 0.27291 -0.796326 0.141567
39 1 1.81899 8.44107 6.1987 0.280236 -0.376182 -0.0633542
40 1 12.0754 10.5257 5.92583 0.6917 -0.820271 1.05963
41 1 0.118211 8.45247 8.56707 0.054097 -1.14635 -0.168071
42 1 1.89088 10.5345 8.08131 0.196604 -0.166848 0.784464
43 1 1.95278 8.53052 10.6779 0.233572 -0.140519 0.227975
44 1 12.1083 10.1958 10.9187 1.08341 0.651478 0.42479
45 1 11.9872 8.63836 13.1932 0.218255 -0.310552 0.161724
46 1 2.28108 10.2908 13.0178 -0.306109 0.327459 -0.476157
47 1 1.76072 8.3419 14.9986 0.0717778 -0.10252 -0.0829836
48 1 12.3997 10.7541 15.196 0.240631 0.226096 -0.624807
49 1 4.03459 12.483 34.9067 -0.269372 0.205695 0.637421
50 1 6.23262 1.65069 34.9915 -0.100228 0.10875 0.79546
51 1 6.0039 12.0239 1.89781 -0.336768 2.15001 0.567917
52 1 4.13488 1.90229 1.8032 0.194702 -0.441254 0.669919
53 1 4.32778 12.4236 4.2793 0.51292 -0.198155 -0.523247
54 1 6.50778 2.19142 3.58619 -0.995739 0.45794 -0.00763536
55 1 6.33001 12.3489 6.35696 0.642061 0.706195 -0.186319
56 1 4.30532 1.99398 6.155 0.300778 0.30828 0.521186
57 1 4.13686 12.2831 8.18525 -0.117539 0.379896 0.555574
58 1 6.51192 2.24507 8.13284 -0.523188 -0.241416 -0.294142
59 1 6.64237 12.3847 10.3568 0.245027 -0.164997 -0.103686
60 1 4.53397 1.41408 10.3435 -0.251366 0.886044 -0.238272
61 1 4.12785 0.19225 13.0683 -0.0601451 -2.30032 -0.797935
62 1 5.70813 2.32355 13.1394 0.931086 0.553375 -0.0990273
63 1 5.61729 12.2222 15.1352 -0.70715 0.379871 0.704314
64 1 3.66474 2.20885 15.0411 -0.383804 0.414585 0.144621
65 1 4.04899 3.55278 35.4495 0.0789954 0.556384 -0.332314
66 1 6.12334 5.90477 35.3444 -0.588695 1.23188 -1.59254
67 1 6.23906 4.82783 1.90023 -0.543037 -1.72773 1.18525
68 1 3.98576 6.56069 1.80628 0.737345 -1.05647 0.124701
69 1 4.38146 4.06948 4.01617 -0.0787789 -0.157015 -0.184723
70 1 6.05628 6.46626 4.04654 -0.405778 0.417069 0.30842
71 1 6.34992 4.57316 6.38856 -0.683662 -0.993683 -0.39065
72 1 4.07784 6.326 6.10203 -0.164178 0.31453 -0.0246136
73 1 4.21014 4.17723 8.23189 -0.161926 -0.646386 0.478483
74 1 5.95318 6.33957 8.65614 0.870894 -0.047157 -0.826737
75 1 6.08087 3.8788 10.7503 -0.447406 0.414286 -0.309433