ITEM: TIMESTEP
10
ITEM: NUMBER OF ATOMS
108
ITEM: BOX BOUNDS xy xz yz pp pp pp
-3.1284660000000031e-01 1.2826710600000000e+01 0.0000000000000000e+00
-3.1284660000000031e-01 1.2826710600000000e+01 0.0000000000000000e+00
-3.1284660000000031e-01 1.2826710600000000e+01 0.0000000000000000e+00
ITEM: ATOMS id type x y z fx fy fz
1 2 12.8267 12.8267 12.8267 7.47632e-06 7.47632e-06 7.47632e-06
2 2 12.8267 1.87708 1.87708 7.47644e-06 -1.28956e-05 -1.28956e-05
3 2 1.87708 12.8267 1.87708 -1.28956e-05 7.47644e-06 -1.28956e-05
4 2 1.87708 1.87708 12.8267 -1.28956e-05 -1.28956e-05 7.47644e-06
5 2 12.8267 12.8267 4.06701 7.47654e-06 7.47654e-06 5.489e-08
6 2 12.8267 1.87708 6.25693 7.47644e-06 -1.28956e-05 1.23144e-05
7 2 1.87708 12.8267 6.25693 -1.28956e-05 7.47644e-06 1.23144e-05
8 2 1.87708 1.87708 4.06701 -1.2896e-05 -1.2896e-05 5.48893e-08
9 2 12.8267 12.8267 8.44686 7.47638e-06 7.47638e-06 -1.18429e-05
10 2 12.8267 1.87708 10.6368 7.47654e-06 -1.28958e-05 4.89291e-06
11 2 1.87708 12.8267 10.6368 -1.28958e-05 7.47654e-06 4.89291e-06
12 2 1.87708 1.87708 8.44686 -1.28957e-05 -1.28957e-05 -1.18431e-05
13 2 12.8267 4.06701 12.8267 7.47654e-06 5.489e-08 7.47654e-06
14 2 12.8267 6.25693 1.87708 7.47644e-06 1.23144e-05 -1.28956e-05
15 2 1.87708 4.06701 1.87708 -1.2896e-05 5.48893e-08 -1.2896e-05
16 2 1.87708 6.25693 12.8267 -1.28956e-05 1.23144e-05 7.47644e-06
17 2 12.8267 4.06701 4.06701 7.47675e-06 5.48893e-08 5.48893e-08
18 2 12.8267 6.25693 6.25693 7.47644e-06 1.23144e-05 1.23144e-05
19 2 1.87708 4.06701 6.25693 -1.2896e-05 5.4889e-08 1.23148e-05
20 2 1.87708 6.25693 4.06701 -1.2896e-05 1.23148e-05 5.48889e-08
21 2 12.8267 4.06701 8.44686 7.4766e-06 5.48897e-08 -1.18432e-05
22 2 12.8267 6.25693 10.6368 7.47654e-06 1.23146e-05 4.89291e-06
23 2 1.87708 4.06701 10.6368 -1.28962e-05 5.48896e-08 4.89306e-06
24 2 1.87708 6.25693 8.44686 -1.28957e-05 1.23145e-05 -1.18431e-05
25 2 12.8267 8.44686 12.8267 7.47638e-06 -1.18429e-05 7.47638e-06
26 2 12.8267 10.6368 1.87708 7.47654e-06 4.89291e-06 -1.28958e-05
27 2 1.87708 8.44686 1.87708 -1.28957e-05 -1.18431e-05 -1.28957e-05
28 2 1.87708 10.6368 12.8267 -1.28958e-05 4.89291e-06 7.47654e-06
29 2 12.8267 8.44686 4.06701 7.4766e-06 -1.18432e-05 5.48896e-08
30 2 12.8267 10.6368 6.25693 7.47654e-06 4.89291e-06 1.23146e-05
31 2 1.87708 8.44686 6.25693 -1.28957e-05 -1.18431e-05 1.23145e-05
32 2 1.87708 10.6368 4.06701 -1.28962e-05 4.89306e-06 5.48896e-08
33 2 12.8267 8.44686 8.44686 7.47644e-06 -1.1843e-05 -1.1843e-05
34 2 12.8267 10.6368 10.6368 7.47663e-06 4.89298e-06 4.89298e-06
35 2 1.87708 8.44686 10.6368 -1.28959e-05 -1.18432e-05 4.89296e-06
36 2 1.87708 10.6368 8.44686 -1.28959e-05 4.89296e-06 -1.18432e-05
37 2 4.06701 12.8267 12.8267 5.489e-08 7.47654e-06 7.47654e-06
38 2 4.06701 1.87708 1.87708 5.48893e-08 -1.2896e-05 -1.2896e-05
39 2 6.25693 12.8267 1.87708 1.23144e-05 7.47644e-06 -1.28956e-05
40 2 6.25693 1.87708 12.8267 1.23144e-05 -1.28956e-05 7.47644e-06
41 2 4.06701 12.8267 4.06701 5.48893e-08 7.47675e-06 5.48893e-08
42 2 4.06701 1.87708 6.25693 5.4889e-08 -1.2896e-05 1.23148e-05
43 2 6.25693 12.8267 6.25693 1.23144e-05 7.47644e-06 1.23144e-05
44 2 6.25693 1.87708 4.06701 1.23148e-05 -1.2896e-05 5.4889e-08
45 2 4.06701 12.8267 8.44686 5.48897e-08 7.4766e-06 -1.18432e-05
46 2 4.06701 1.87708 10.6368 5.48896e-08 -1.28962e-05 4.89306e-06
47 2 6.25693 12.8267 10.6368 1.23146e-05 7.47654e-06 4.89291e-06
48 2 6.25693 1.87708 8.44686 1.23145e-05 -1.28957e-05 -1.18431e-05
49 2 4.06701 4.06701 12.8267 5.48893e-08 5.48893e-08 7.47675e-06
50 2 4.06701 6.25693 1.87708 5.48889e-08 1.23148e-05 -1.2896e-05
51 2 6.25693 4.06701 1.87708 1.23148e-05 5.4889e-08 -1.2896e-05
52 2 6.25693 6.25693 12.8267 1.23144e-05 1.23144e-05 7.47644e-06
53 2 4.06701 4.06701 4.06701 5.48885e-08 5.48885e-08 5.48885e-08
54 2 4.06701 6.25693 6.25693 5.48886e-08 1.23148e-05 1.23148e-05
55 2 6.25693 4.06701 6.25693 1.23148e-05 5.48886e-08 1.23148e-05
56 2 6.25693 6.25693 4.06701 1.23148e-05 1.23148e-05 5.48886e-08
57 2 4.06701 4.06701 8.44686 5.48889e-08 5.48889e-08 -1.18436e-05
58 2 4.06701 6.25693 10.6368 5.48893e-08 1.23149e-05 4.89306e-06
59 2 6.25693 4.06701 10.6368 1.23149e-05 5.48893e-08 4.89306e-06
60 2 6.25693 6.25693 8.44686 1.23145e-05 1.23145e-05 -1.18431e-05
61 2 4.06701 8.44686 12.8267 5.48897e-08 -1.18432e-05 7.4766e-06
62 2 4.06701 10.6368 1.87708 5.48896e-08 4.89306e-06 -1.28962e-05
63 2 6.25693 8.44686 1.87708 1.23145e-05 -1.18431e-05 -1.28957e-05
64 2 6.25693 10.6368 12.8267 1.23146e-05 4.89291e-06 7.47654e-06
65 2 4.06701 8.44686 4.06701 5.48889e-08 -1.18436e-05 5.48889e-08
66 2 4.06701 10.6368 6.25693 5.48893e-08 4.89306e-06 1.23149e-05
67 2 6.25693 8.44686 6.25693 1.23145e-05 -1.18431e-05 1.23145e-05
68 2 6.25693 10.6368 4.06701 1.23149e-05 4.89306e-06 5.48893e-08
69 2 4.06701 8.44686 8.44686 5.48893e-08 -1.18433e-05 -1.18433e-05
70 2 4.06701 10.6368 10.6368 5.48899e-08 4.89312e-06 4.89312e-06
71 2 6.25693 8.44686 10.6368 1.23147e-05 -1.18432e-05 4.89296e-06
72 2 6.25693 10.6368 8.44686 1.23147e-05 4.89296e-06 -1.18432e-05
73 2 8.44686 12.8267 12.8267 -1.18429e-05 7.47638e-06 7.47638e-06
74 2 8.44686 1.87708 1.87708 -1.18431e-05 -1.28957e-05 -1.28957e-05
75 2 10.6368 12.8267 1.87708 4.89291e-06 7.47654e-06 -1.28958e-05
76 2 10.6368 1.87708 12.8267 4.89291e-06 -1.28958e-05 7.47654e-06
77 2 8.44686 12.8267 4.06701 -1.18432e-05 7.4766e-06 5.48897e-08
78 2 8.44686 1.87708 6.25693 -1.18431e-05 -1.28957e-05 1.23145e-05
79 2 10.6368 12.8267 6.25693 4.89291e-06 7.47654e-06 1.23146e-05
80 2 10.6368 1.87708 4.06701 4.89306e-06 -1.28962e-05 5.48896e-08
81 2 8.44686 12.8267 8.44686 -1.1843e-05 7.47644e-06 -1.1843e-05
82 2 8.44686 1.87708 10.6368 -1.18432e-05 -1.28959e-05 4.89296e-06
83 2 10.6368 12.8267 10.6368 4.89298e-06 7.47663e-06 4.89298e-06
84 2 10.6368 1.87708 8.44686 4.89296e-06 -1.28959e-05 -1.18432e-05
85 2 8.44686 4.06701 12.8267 -1.18432e-05 5.48897e-08 7.4766e-06
86 2 8.44686 6.25693 1.87708 -1.18431e-05 1.23145e-05 -1.28957e-05
87 2 10.6368 4.06701 1.87708 4.89306e-06 5.48896e-08 -1.28962e-05
88 2 10.6368 6.25693 12.8267 4.89291e-06 1.23146e-05 7.47654e-06
89 2 8.44686 4.06701 4.06701 -1.18436e-05 5.48889e-08 5.48889e-08
90 2 8.44686 6.25693 6.25693 -1.18431e-05 1.23145e-05 1.23145e-05
91 2 10.6368 4.06701 6.25693 4.89306e-06 5.48893e-08 1.23149e-05
92 2 10.6368 6.25693 4.06701 4.89306e-06 1.23149e-05 5.48893e-08
93 2 8.44686 4.06701 8.44686 -1.18433e-05 5.48893e-08 -1.18433e-05
94 2 8.44686 6.25693 10.6368 -1.18432e-05 1.23147e-05 4.89296e-06
95 2 10.6368 4.06701 10.6368 4.89312e-06 5.48899e-08 4.89312e-06
96 2 10.6368 6.25693 8.44686 4.89296e-06 1.23147e-05 -1.18432e-05
97 2 8.44686 8.44686 12.8267 -1.1843e-05 -1.1843e-05 7.47644e-06
98 2 8.44686 10.6368 1.87708 -1.18432e-05 4.89296e-06 -1.28959e-05
99 2 10.6368 8.44686 1.87708 4.89296e-06 -1.18432e-05 -1.28959e-05
100 2 10.6368 10.6368 12.8267 4.89298e-06 4.89298e-06 7.47663e-06
101 2 8.44686 8.44686 4.06701 -1.18433e-05 -1.18433e-05 5.48893e-08
102 2 8.44686 10.6368 6.25693 -1.18432e-05 4.89296e-06 1.23147e-05
103 2 10.6368 8.44686 6.25693 4.89296e-06 -1.18432e-05 1.23147e-05
104 2 10.6368 10.6368 4.06701 4.89312e-06 4.89312e-06 5.48899e-08
105 2 8.44686 8.44686 8.44686 -1.18431e-05 -1.18431e-05 -1.18431e-05
106 2 8.44686 10.6368 10.6368 -1.18434e-05 4.89302e-06 4.89302e-06
107 2 10.6368 8.44686 10.6368 4.89302e-06 -1.18434e-05 4.89302e-06
108 2 10.6368 10.6368 8.44686 4.89302e-06 4.89302e-06 -1.18434e-05
ITEM: TIMESTEP
20
ITEM: NUMBER OF ATOMS
108
ITEM: BOX BOUNDS xy xz yz pp pp pp
-3.0627682140000012e-01 1.2820140821399997e+01 0.0000000000000000e+00
-3.0627682140000012e-01 1.2820140821399997e+01 0.0000000000000000e+00
-3.0627682140000012e-01 1.2820140821399997e+01 0.0000000000000000e+00
ITEM: ATOMS id type x y z fx fy fz
1 2 12.8201 12.8201 12.8201 7.67992e-06 7.67992e-06 7.67992e-06
2 2 12.8201 1.88146 1.88146 7.68004e-06 -1.32349e-05 -1.32349e-05
3 2 1.88146 12.8201 1.88146 -1.32349e-05 7.68004e-06 -1.32349e-05
4 2 1.88146 1.88146 12.8201 -1.32349e-05 -1.32349e-05 7.68004e-06
5 2 12.8201 12.8201 4.0692 7.68014e-06 7.68014e-06 5.41329e-08
6 2 12.8201 1.88146 6.25693 7.68004e-06 -1.32349e-05 1.26558e-05
7 2 1.88146 12.8201 6.25693 -1.32349e-05 7.68004e-06 1.26558e-05
8 2 1.88146 1.88146 4.0692 -1.32353e-05 -1.32353e-05 5.41322e-08
9 2 12.8201 12.8201 8.44467 7.67998e-06 7.67998e-06 -1.21848e-05
10 2 12.8201 1.88146 10.6324 7.68014e-06 -1.32351e-05 5.02991e-06
11 2 1.88146 12.8201 10.6324 -1.32351e-05 7.68014e-06 5.02991e-06
12 2 1.88146 1.88146 8.44467 -1.3235e-05 -1.3235e-05 -1.2185e-05
13 2 12.8201 4.0692 12.8201 7.68014e-06 5.41329e-08 7.68014e-06
14 2 12.8201 6.25693 1.88146 7.68004e-06 1.26558e-05 -1.32349e-05
15 2 1.88146 4.0692 1.88146 -1.32353e-05 5.41322e-08 -1.32353e-05
16 2 1.88146 6.25693 12.8201 -1.32349e-05 1.26558e-05 7.68004e-06
17 2 12.8201 4.0692 4.0692 7.68036e-06 5.41321e-08 5.41322e-08
18 2 12.8201 6.25693 6.25693 7.68004e-06 1.26558e-05 1.26558e-05
19 2 1.88146 4.0692 6.25693 -1.32353e-05 5.41318e-08 1.26561e-05
20 2 1.88146 6.25693 4.0692 -1.32353e-05 1.26561e-05 5.41318e-08
21 2 12.8201 4.0692 8.44467 7.6802e-06 5.41326e-08 -1.21851e-05
22 2 12.8201 6.25693 10.6324 7.68014e-06 1.26559e-05 5.02991e-06
23 2 1.88146 4.0692 10.6324 -1.32354e-05 5.41325e-08 5.03006e-06
24 2 1.88146 6.25693 8.44467 -1.3235e-05 1.26559e-05 -1.2185e-05
25 2 12.8201 8.44467 12.8201 7.67998e-06 -1.21848e-05 7.67998e-06
26 2 12.8201 10.6324 1.88146 7.68014e-06 5.02991e-06 -1.32351e-05
27 2 1.88146 8.44467 1.88146 -1.3235e-05 -1.2185e-05 -1.3235e-05
28 2 1.88146 10.6324 12.8201 -1.32351e-05 5.02991e-06 7.68014e-06
29 2 12.8201 8.44467 4.0692 7.6802e-06 -1.21851e-05 5.41325e-08
30 2 12.8201 10.6324 6.25693 7.68014e-06 5.02991e-06 1.26559e-05
31 2 1.88146 8.44467 6.25693 -1.3235e-05 -1.2185e-05 1.26559e-05
32 2 1.88146 10.6324 4.0692 -1.32354e-05 5.03006e-06 5.41325e-08
33 2 12.8201 8.44467 8.44467 7.68004e-06 -1.21849e-05 -1.21849e-05
34 2 12.8201 10.6324 10.6324 7.68024e-06 5.02998e-06 5.02998e-06
35 2 1.88146 8.44467 10.6324 -1.32352e-05 -1.21851e-05 5.02995e-06
36 2 1.88146 10.6324 8.44467 -1.32352e-05 5.02995e-06 -1.21851e-05
37 2 4.0692 12.8201 12.8201 5.41329e-08 7.68014e-06 7.68014e-06
38 2 4.0692 1.88146 1.88146 5.41322e-08 -1.32353e-05 -1.32353e-05
39 2 6.25693 12.8201 1.88146 1.26558e-05 7.68004e-06 -1.32349e-05
40 2 6.25693 1.88146 12.8201 1.26558e-05 -1.32349e-05 7.68004e-06
41 2 4.0692 12.8201 4.0692 5.41321e-08 7.68036e-06 5.41322e-08
42 2 4.0692 1.88146 6.25693 5.41318e-08 -1.32353e-05 1.26561e-05
43 2 6.25693 12.8201 6.25693 1.26558e-05 7.68004e-06 1.26558e-05
44 2 6.25693 1.88146 4.0692 1.26561e-05 -1.32353e-05 5.41318e-08
45 2 4.0692 12.8201 8.44467 5.41326e-08 7.6802e-06 -1.21851e-05
46 2 4.0692 1.88146 10.6324 5.41325e-08 -1.32354e-05 5.03006e-06
47 2 6.25693 12.8201 10.6324 1.26559e-05 7.68014e-06 5.02991e-06
48 2 6.25693 1.88146 8.44467 1.26559e-05 -1.3235e-05 -1.2185e-05
49 2 4.0692 4.0692 12.8201 5.41321e-08 5.41321e-08 7.68036e-06
50 2 4.0692 6.25693 1.88146 5.41318e-08 1.26561e-05 -1.32353e-05
51 2 6.25693 4.0692 1.88146 1.26561e-05 5.41318e-08 -1.32353e-05
52 2 6.25693 6.25693 12.8201 1.26558e-05 1.26558e-05 7.68004e-06
53 2 4.0692 4.0692 4.0692 5.41314e-08 5.41314e-08 5.41314e-08
54 2 4.0692 6.25693 6.25693 5.41315e-08 1.26561e-05 1.26561e-05
55 2 6.25693 4.0692 6.25693 1.26561e-05 5.41315e-08 1.26561e-05
56 2 6.25693 6.25693 4.0692 1.26561e-05 1.26561e-05 5.41314e-08
57 2 4.0692 4.0692 8.44467 5.41318e-08 5.41318e-08 -1.21855e-05
58 2 4.0692 6.25693 10.6324 5.41322e-08 1.26563e-05 5.03006e-06
59 2 6.25693 4.0692 10.6324 1.26563e-05 5.41322e-08 5.03006e-06
60 2 6.25693 6.25693 8.44467 1.26559e-05 1.26559e-05 -1.2185e-05
61 2 4.0692 8.44467 12.8201 5.41326e-08 -1.21851e-05 7.6802e-06
62 2 4.0692 10.6324 1.88146 5.41325e-08 5.03006e-06 -1.32354e-05
63 2 6.25693 8.44467 1.88146 1.26559e-05 -1.2185e-05 -1.3235e-05
64 2 6.25693 10.6324 12.8201 1.26559e-05 5.02991e-06 7.68014e-06
65 2 4.0692 8.44467 4.0692 5.41318e-08 -1.21855e-05 5.41318e-08
66 2 4.0692 10.6324 6.25693 5.41322e-08 5.03006e-06 1.26563e-05
67 2 6.25693 8.44467 6.25693 1.26559e-05 -1.2185e-05 1.26559e-05
68 2 6.25693 10.6324 4.0692 1.26563e-05 5.03006e-06 5.41321e-08
69 2 4.0692 8.44467 8.44467 5.41322e-08 -1.21852e-05 -1.21852e-05
70 2 4.0692 10.6324 10.6324 5.41329e-08 5.03012e-06 5.03012e-06
71 2 6.25693 8.44467 10.6324 1.2656e-05 -1.21851e-05 5.02995e-06
72 2 6.25693 10.6324 8.44467 1.2656e-05 5.02995e-06 -1.21851e-05
73 2 8.44467 12.8201 12.8201 -1.21848e-05 7.67998e-06 7.67998e-06
74 2 8.44467 1.88146 1.88146 -1.2185e-05 -1.3235e-05 -1.3235e-05
75 2 10.6324 12.8201 1.88146 5.02991e-06 7.68014e-06 -1.32351e-05
76 2 10.6324 1.88146 12.8201 5.02991e-06 -1.32351e-05 7.68014e-06
77 2 8.44467 12.8201 4.0692 -1.21851e-05 7.6802e-06 5.41325e-08
78 2 8.44467 1.88146 6.25693 -1.2185e-05 -1.3235e-05 1.26559e-05
79 2 10.6324 12.8201 6.25693 5.02991e-06 7.68014e-06 1.26559e-05
80 2 10.6324 1.88146 4.0692 5.03006e-06 -1.32354e-05 5.41325e-08
81 2 8.44467 12.8201 8.44467 -1.21849e-05 7.68004e-06 -1.21849e-05
82 2 8.44467 1.88146 10.6324 -1.21851e-05 -1.32352e-05 5.02995e-06
83 2 10.6324 12.8201 10.6324 5.02998e-06 7.68024e-06 5.02998e-06
84 2 10.6324 1.88146 8.44467 5.02995e-06 -1.32352e-05 -1.21851e-05
85 2 8.44467 4.0692 12.8201 -1.21851e-05 5.41326e-08 7.6802e-06
86 2 8.44467 6.25693 1.88146 -1.2185e-05 1.26559e-05 -1.3235e-05
87 2 10.6324 4.0692 1.88146 5.03006e-06 5.41325e-08 -1.32354e-05
88 2 10.6324 6.25693 12.8201 5.02991e-06 1.26559e-05 7.68014e-06
89 2 8.44467 4.0692 4.0692 -1.21855e-05 5.41318e-08 5.41318e-08
90 2 8.44467 6.25693 6.25693 -1.2185e-05 1.26559e-05 1.26559e-05
91 2 10.6324 4.0692 6.25693 5.03006e-06 5.41322e-08 1.26563e-05
92 2 10.6324 6.25693 4.0692 5.03006e-06 1.26563e-05 5.41322e-08
93 2 8.44467 4.0692 8.44467 -1.21852e-05 5.41322e-08 -1.21852e-05
94 2 8.44467 6.25693 10.6324 -1.21851e-05 1.2656e-05 5.02995e-06
95 2 10.6324 4.0692 10.6324 5.03012e-06 5.41328e-08 5.03012e-06
96 2 10.6324 6.25693 8.44467 5.02995e-06 1.2656e-05 -1.21851e-05
97 2 8.44467 8.44467 12.8201 -1.21849e-05 -1.21849e-05 7.68004e-06
98 2 8.44467 10.6324 1.88146 -1.21851e-05 5.02995e-06 -1.32352e-05
99 2 10.6324 8.44467 1.88146 5.02995e-06 -1.21851e-05 -1.32352e-05
100 2 10.6324 10.6324 12.8201 5.02998e-06 5.02998e-06 7.68024e-06
101 2 8.44467 8.44467 4.0692 -1.21852e-05 -1.21852e-05 5.41321e-08
102 2 8.44467 10.6324 6.25693 -1.21851e-05 5.02995e-06 1.2656e-05
103 2 10.6324 8.44467 6.25693 5.02995e-06 -1.21851e-05 1.2656e-05
104 2 10.6324 10.6324 4.0692 5.03012e-06 5.03012e-06 5.41328e-08
105 2 8.44467 8.44467 8.44467 -1.2185e-05 -1.2185e-05 -1.2185e-05
106 2 8.44467 10.6324 10.6324 -1.21853e-05 5.03002e-06 5.03002e-06
107 2 10.6324 8.44467 10.6324 5.03002e-06 -1.21853e-05 5.03002e-06
108 2 10.6324 10.6324 8.44467 5.03002e-06 5.03002e-06 -1.21853e-05
ITEM: TIMESTEP
30
ITEM: NUMBER OF ATOMS
108
ITEM: BOX BOUNDS xy xz yz pp pp pp
-2.9970704279999993e-01 1.2813571042799994e+01 0.0000000000000000e+00
-2.9970704279999993e-01 1.2813571042799994e+01 0.0000000000000000e+00
-2.9970704279999993e-01 1.2813571042799994e+01 0.0000000000000000e+00
ITEM: ATOMS id type x y z fx fy fz
1 2 12.8136 12.8136 12.8136 7.88659e-06 7.88659e-06 7.88659e-06
2 2 12.8136 1.88584 1.88584 7.88671e-06 -1.35792e-05 -1.35792e-05
3 2 1.88584 12.8136 1.88584 -1.35792e-05 7.88671e-06 -1.35792e-05
4 2 1.88584 1.88584 12.8136 -1.35792e-05 -1.35792e-05 7.88671e-06
5 2 12.8136 12.8136 4.07139 7.88681e-06 7.88681e-06 5.34981e-08
6 2 12.8136 1.88584 6.25693 7.88671e-06 -1.35792e-05 1.30019e-05
7 2 1.88584 12.8136 6.25693 -1.35792e-05 7.88671e-06 1.30019e-05
8 2 1.88584 1.88584 4.07139 -1.35795e-05 -1.35795e-05 5.34973e-08
9 2 12.8136 12.8136 8.44248 7.88665e-06 7.88665e-06 -1.25315e-05
10 2 12.8136 1.88584 10.628 7.88681e-06 -1.35793e-05 5.16875e-06
11 2 1.88584 12.8136 10.628 -1.35793e-05 7.88681e-06 5.16875e-06
12 2 1.88584 1.88584 8.44248 -1.35793e-05 -1.35793e-05 -1.25317e-05
13 2 12.8136 4.07139 12.8136 7.88681e-06 5.34981e-08 7.88681e-06
14 2 12.8136 6.25693 1.88584 7.88671e-06 1.30019e-05 -1.35792e-05
15 2 1.88584 4.07139 1.88584 -1.35795e-05 5.34974e-08 -1.35795e-05
16 2 1.88584 6.25693 12.8136 -1.35792e-05 1.30019e-05 7.88671e-06
17 2 12.8136 4.07139 4.07139 7.88703e-06 5.34973e-08 5.34973e-08
18 2 12.8136 6.25693 6.25693 7.88671e-06 1.30019e-05 1.30019e-05
19 2 1.88584 4.07139 6.25693 -1.35795e-05 5.34971e-08 1.30023e-05
20 2 1.88584 6.25693 4.07139 -1.35795e-05 1.30023e-05 5.3497e-08
21 2 12.8136 4.07139 8.44248 7.88687e-06 5.34977e-08 -1.25319e-05
22 2 12.8136 6.25693 10.628 7.88681e-06 1.30021e-05 5.16875e-06
23 2 1.88584 4.07139 10.628 -1.35797e-05 5.34977e-08 5.1689e-06
24 2 1.88584 6.25693 8.44248 -1.35793e-05 1.3002e-05 -1.25317e-05
25 2 12.8136 8.44248 12.8136 7.88665e-06 -1.25315e-05 7.88665e-06
26 2 12.8136 10.628 1.88584 7.88681e-06 5.16875e-06 -1.35793e-05
27 2 1.88584 8.44248 1.88584 -1.35793e-05 -1.25317e-05 -1.35793e-05
28 2 1.88584 10.628 12.8136 -1.35793e-05 5.16875e-06 7.88681e-06
29 2 12.8136 8.44248 4.07139 7.88687e-06 -1.25319e-05 5.34977e-08
30 2 12.8136 10.628 6.25693 7.88681e-06 5.16875e-06 1.30021e-05
31 2 1.88584 8.44248 6.25693 -1.35793e-05 -1.25317e-05 1.3002e-05
32 2 1.88584 10.628 4.07139 -1.35797e-05 5.1689e-06 5.34977e-08
33 2 12.8136 8.44248 8.44248 7.88671e-06 -1.25316e-05 -1.25316e-05
34 2 12.8136 10.628 10.628 7.8869e-06 5.16881e-06 5.16881e-06
35 2 1.88584 8.44248 10.628 -1.35794e-05 -1.25319e-05 5.16879e-06
36 2 1.88584 10.628 8.44248 -1.35794e-05 5.16879e-06 -1.25319e-05
37 2 4.07139 12.8136 12.8136 5.34981e-08 7.88681e-06 7.88681e-06
38 2 4.07139 1.88584 1.88584 5.34974e-08 -1.35795e-05 -1.35795e-05
39 2 6.25693 12.8136 1.88584 1.30019e-05 7.88671e-06 -1.35792e-05
40 2 6.25693 1.88584 12.8136 1.30019e-05 -1.35792e-05 7.88671e-06
41 2 4.07139 12.8136 4.07139 5.34973e-08 7.88703e-06 5.34973e-08
42 2 4.07139 1.88584 6.25693 5.34971e-08 -1.35795e-05 1.30023e-05
43 2 6.25693 12.8136 6.25693 1.30019e-05 7.88671e-06 1.30019e-05
44 2 6.25693 1.88584 4.07139 1.30023e-05 -1.35795e-05 5.3497e-08
45 2 4.07139 12.8136 8.44248 5.34977e-08 7.88687e-06 -1.25319e-05
46 2 4.07139 1.88584 10.628 5.34977e-08 -1.35797e-05 5.1689e-06
47 2 6.25693 12.8136 10.628 1.30021e-05 7.88681e-06 5.16875e-06
48 2 6.25693 1.88584 8.44248 1.3002e-05 -1.35793e-05 -1.25317e-05
49 2 4.07139 4.07139 12.8136 5.34973e-08 5.34973e-08 7.88703e-06
50 2 4.07139 6.25693 1.88584 5.3497e-08 1.30023e-05 -1.35795e-05
51 2 6.25693 4.07139 1.88584 1.30023e-05 5.3497e-08 -1.35795e-05
52 2 6.25693 6.25693 12.8136 1.30019e-05 1.30019e-05 7.88671e-06
53 2 4.07139 4.07139 4.07139 5.34966e-08 5.34966e-08 5.34966e-08
54 2 4.07139 6.25693 6.25693 5.34967e-08 1.30023e-05 1.30023e-05
55 2 6.25693 4.07139 6.25693 1.30023e-05 5.34967e-08 1.30023e-05
56 2 6.25693 6.25693 4.07139 1.30023e-05 1.30023e-05 5.34967e-08
57 2 4.07139 4.07139 8.44248 5.3497e-08 5.3497e-08 -1.25323e-05
58 2 4.07139 6.25693 10.628 5.34973e-08 1.30024e-05 5.1689e-06
59 2 6.25693 4.07139 10.628 1.30024e-05 5.34973e-08 5.1689e-06
60 2 6.25693 6.25693 8.44248 1.3002e-05 1.3002e-05 -1.25317e-05
61 2 4.07139 8.44248 12.8136 5.34977e-08 -1.25319e-05 7.88687e-06
62 2 4.07139 10.628 1.88584 5.34977e-08 5.1689e-06 -1.35797e-05
63 2 6.25693 8.44248 1.88584 1.3002e-05 -1.25317e-05 -1.35793e-05
64 2 6.25693 10.628 12.8136 1.30021e-05 5.16875e-06 7.88681e-06
65 2 4.07139 8.44248 4.07139 5.3497e-08 -1.25323e-05 5.3497e-08
66 2 4.07139 10.628 6.25693 5.34974e-08 5.1689e-06 1.30024e-05
67 2 6.25693 8.44248 6.25693 1.3002e-05 -1.25317e-05 1.3002e-05
68 2 6.25693 10.628 4.07139 1.30024e-05 5.1689e-06 5.34974e-08
69 2 4.07139 8.44248 8.44248 5.34974e-08 -1.2532e-05 -1.2532e-05
70 2 4.07139 10.628 10.628 5.3498e-08 5.16896e-06 5.16896e-06
71 2 6.25693 8.44248 10.628 1.30022e-05 -1.25319e-05 5.16879e-06
72 2 6.25693 10.628 8.44248 1.30022e-05 5.16879e-06 -1.25319e-05
73 2 8.44248 12.8136 12.8136 -1.25315e-05 7.88665e-06 7.88665e-06
74 2 8.44248 1.88584 1.88584 -1.25317e-05 -1.35793e-05 -1.35793e-05
75 2 10.628 12.8136 1.88584 5.16875e-06 7.88681e-06 -1.35793e-05
76 2 10.628 1.88584 12.8136 5.16875e-06 -1.35793e-05 7.88681e-06
77 2 8.44248 12.8136 4.07139 -1.25319e-05 7.88687e-06 5.34977e-08
78 2 8.44248 1.88584 6.25693 -1.25317e-05 -1.35793e-05 1.3002e-05
79 2 10.628 12.8136 6.25693 5.16875e-06 7.88681e-06 1.30021e-05
80 2 10.628 1.88584 4.07139 5.1689e-06 -1.35797e-05 5.34977e-08
81 2 8.44248 12.8136 8.44248 -1.25316e-05 7.88671e-06 -1.25316e-05
82 2 8.44248 1.88584 10.628 -1.25319e-05 -1.35794e-05 5.16879e-06
83 2 10.628 12.8136 10.628 5.16881e-06 7.8869e-06 5.16881e-06
84 2 10.628 1.88584 8.44248 5.16879e-06 -1.35794e-05 -1.25319e-05
85 2 8.44248 4.07139 12.8136 -1.25319e-05 5.34977e-08 7.88687e-06
86 2 8.44248 6.25693 1.88584 -1.25317e-05 1.3002e-05 -1.35793e-05
87 2 10.628 4.07139 1.88584 5.1689e-06 5.34977e-08 -1.35797e-05
88 2 10.628 6.25693 12.8136 5.16875e-06 1.30021e-05 7.88681e-06
89 2 8.44248 4.07139 4.07139 -1.25323e-05 5.3497e-08 5.3497e-08
90 2 8.44248 6.25693 6.25693 -1.25317e-05 1.3002e-05 1.3002e-05
91 2 10.628 4.07139 6.25693 5.1689e-06 5.34973e-08 1.30024e-05
92 2 10.628 6.25693 4.07139 5.1689e-06 1.30024e-05 5.34973e-08
93 2 8.44248 4.07139 8.44248 -1.2532e-05 5.34973e-08 -1.2532e-05
94 2 8.44248 6.25693 10.628 -1.25319e-05 1.30022e-05 5.16879e-06
95 2 10.628 4.07139 10.628 5.16896e-06 5.34979e-08 5.16896e-06
96 2 10.628 6.25693 8.44248 5.16879e-06 1.30022e-05 -1.25319e-05
97 2 8.44248 8.44248 12.8136 -1.25316e-05 -1.25316e-05 7.88671e-06
98 2 8.44248 10.628 1.88584 -1.25319e-05 5.16879e-06 -1.35794e-05
99 2 10.628 8.44248 1.88584 5.16879e-06 -1.25319e-05 -1.35794e-05
100 2 10.628 10.628 12.8136 5.16881e-06 5.16881e-06 7.8869e-06
101 2 8.44248 8.44248 4.07139 -1.2532e-05 -1.2532e-05 5.34974e-08
102 2 8.44248 10.628 6.25693 -1.25319e-05 5.16879e-06 1.30022e-05
103 2 10.628 8.44248 6.25693 5.16879e-06 -1.25319e-05 1.30022e-05
104 2 10.628 10.628 4.07139 5.16896e-06 5.16896e-06 5.3498e-08
105 2 8.44248 8.44248 8.44248 -1.25317e-05 -1.25317e-05 -1.25317e-05
106 2 8.44248 10.628 10.628 -1.25321e-05 5.16885e-06 5.16885e-06
107 2 10.628 8.44248 10.628 5.16885e-06 -1.25321e-05 5.16885e-06
108 2 10.628 10.628 8.44248 5.16885e-06 5.16885e-06 -1.25321e-05
ITEM: TIMESTEP
40
ITEM: NUMBER OF ATOMS
108
ITEM: BOX BOUNDS xy xz yz pp pp pp
-2.9313726419999975e-01 1.2807001264199991e+01 0.0000000000000000e+00
-2.9313726419999975e-01 1.2807001264199991e+01 0.0000000000000000e+00
-2.9313726419999975e-01 1.2807001264199991e+01 0.0000000000000000e+00
ITEM: ATOMS id type x y z fx fy fz
1 2 12.807 12.807 12.807 8.0963e-06 8.0963e-06 8.0963e-06
2 2 12.807 1.89022 1.89022 8.09643e-06 -1.39283e-05 -1.39283e-05
3 2 1.89022 12.807 1.89022 -1.39283e-05 8.09643e-06 -1.39283e-05
4 2 1.89022 1.89022 12.807 -1.39283e-05 -1.39283e-05 8.09643e-06
5 2 12.807 12.807 4.07358 8.09653e-06 8.09653e-06 5.29891e-08
6 2 12.807 1.89022 6.25693 8.09643e-06 -1.39283e-05 1.33528e-05
7 2 1.89022 12.807 6.25693 -1.39283e-05 8.09643e-06 1.33528e-05
8 2 1.89022 1.89022 4.07358 -1.39287e-05 -1.39287e-05 5.29883e-08
9 2 12.807 12.807 8.44029 8.09637e-06 8.09637e-06 -1.28831e-05
10 2 12.807 1.89022 10.6236 8.09653e-06 -1.39285e-05 5.30941e-06
11 2 1.89022 12.807 10.6236 -1.39285e-05 8.09653e-06 5.30941e-06
12 2 1.89022 1.89022 8.44029 -1.39284e-05 -1.39284e-05 -1.28833e-05
13 2 12.807 4.07358 12.807 8.09653e-06 5.2989e-08 8.09653e-06
14 2 12.807 6.25693 1.89022 8.09643e-06 1.33528e-05 -1.39283e-05
15 2 1.89022 4.07358 1.89022 -1.39287e-05 5.29883e-08 -1.39287e-05
16 2 1.89022 6.25693 12.807 -1.39283e-05 1.33528e-05 8.09643e-06
17 2 12.807 4.07358 4.07358 8.09675e-06 5.29883e-08 5.29883e-08
18 2 12.807 6.25693 6.25693 8.09643e-06 1.33528e-05 1.33528e-05
19 2 1.89022 4.07358 6.25693 -1.39287e-05 5.2988e-08 1.33532e-05
20 2 1.89022 6.25693 4.07358 -1.39287e-05 1.33532e-05 5.2988e-08
21 2 12.807 4.07358 8.44029 8.09659e-06 5.29887e-08 -1.28835e-05
22 2 12.807 6.25693 10.6236 8.09653e-06 1.3353e-05 5.30941e-06
23 2 1.89022 4.07358 10.6236 -1.39289e-05 5.29886e-08 5.30956e-06
24 2 1.89022 6.25693 8.44029 -1.39284e-05 1.33529e-05 -1.28833e-05
25 2 12.807 8.44029 12.807 8.09637e-06 -1.28831e-05 8.09637e-06
26 2 12.807 10.6236 1.89022 8.09653e-06 5.30941e-06 -1.39285e-05
27 2 1.89022 8.44029 1.89022 -1.39284e-05 -1.28833e-05 -1.39284e-05
28 2 1.89022 10.6236 12.807 -1.39285e-05 5.30941e-06 8.09653e-06
29 2 12.807 8.44029 4.07358 8.09659e-06 -1.28835e-05 5.29887e-08
30 2 12.807 10.6236 6.25693 8.09653e-06 5.30941e-06 1.3353e-05
31 2 1.89022 8.44029 6.25693 -1.39284e-05 -1.28833e-05 1.33529e-05
32 2 1.89022 10.6236 4.07358 -1.39289e-05 5.30956e-06 5.29886e-08
33 2 12.807 8.44029 8.44029 8.09643e-06 -1.28832e-05 -1.28832e-05
34 2 12.807 10.6236 10.6236 8.09663e-06 5.30948e-06 5.30948e-06
35 2 1.89022 8.44029 10.6236 -1.39286e-05 -1.28835e-05 5.30945e-06
36 2 1.89022 10.6236 8.44029 -1.39286e-05 5.30945e-06 -1.28835e-05
37 2 4.07358 12.807 12.807 5.2989e-08 8.09653e-06 8.09653e-06
38 2 4.07358 1.89022 1.89022 5.29883e-08 -1.39287e-05 -1.39287e-05
39 2 6.25693 12.807 1.89022 1.33528e-05 8.09643e-06 -1.39283e-05
40 2 6.25693 1.89022 12.807 1.33528e-05 -1.39283e-05 8.09643e-06
41 2 4.07358 12.807 4.07358 5.29883e-08 8.09675e-06 5.29883e-08
42 2 4.07358 1.89022 6.25693 5.2988e-08 -1.39287e-05 1.33532e-05
43 2 6.25693 12.807 6.25693 1.33528e-05 8.09643e-06 1.33528e-05
44 2 6.25693 1.89022 4.07358 1.33532e-05 -1.39287e-05 5.2988e-08
45 2 4.07358 12.807 8.44029 5.29887e-08 8.09659e-06 -1.28835e-05
46 2 4.07358 1.89022 10.6236 5.29886e-08 -1.39289e-05 5.30956e-06
47 2 6.25693 12.807 10.6236 1.3353e-05 8.09653e-06 5.30941e-06
48 2 6.25693 1.89022 8.44029 1.33529e-05 -1.39284e-05 -1.28833e-05
49 2 4.07358 4.07358 12.807 5.29883e-08 5.29883e-08 8.09675e-06
50 2 4.07358 6.25693 1.89022 5.2988e-08 1.33532e-05 -1.39287e-05
51 2 6.25693 4.07358 1.89022 1.33532e-05 5.2988e-08 -1.39287e-05
52 2 6.25693 6.25693 12.807 1.33528e-05 1.33528e-05 8.09643e-06
53 2 4.07358 4.07358 4.07358 5.29875e-08 5.29875e-08 5.29875e-08
54 2 4.07358 6.25693 6.25693 5.29876e-08 1.33532e-05 1.33532e-05
55 2 6.25693 4.07358 6.25693 1.33532e-05 5.29876e-08 1.33532e-05
56 2 6.25693 6.25693 4.07358 1.33532e-05 1.33532e-05 5.29877e-08
57 2 4.07358 4.07358 8.44029 5.29879e-08 5.29878e-08 -1.28839e-05
58 2 4.07358 6.25693 10.6236 5.29883e-08 1.33533e-05 5.30956e-06
59 2 6.25693 4.07358 10.6236 1.33533e-05 5.29882e-08 5.30956e-06
60 2 6.25693 6.25693 8.44029 1.33529e-05 1.33529e-05 -1.28833e-05
61 2 4.07358 8.44029 12.807 5.29887e-08 -1.28835e-05 8.09659e-06
62 2 4.07358 10.6236 1.89022 5.29886e-08 5.30956e-06 -1.39289e-05
63 2 6.25693 8.44029 1.89022 1.33529e-05 -1.28833e-05 -1.39284e-05
64 2 6.25693 10.6236 12.807 1.3353e-05 5.30941e-06 8.09653e-06
65 2 4.07358 8.44029 4.07358 5.29879e-08 -1.28839e-05 5.29879e-08
66 2 4.07358 10.6236 6.25693 5.29883e-08 5.30956e-06 1.33533e-05
67 2 6.25693 8.44029 6.25693 1.33529e-05 -1.28833e-05 1.33529e-05
68 2 6.25693 10.6236 4.07358 1.33533e-05 5.30956e-06 5.29883e-08
69 2 4.07358 8.44029 8.44029 5.29883e-08 -1.28836e-05 -1.28836e-05
70 2 4.07358 10.6236 10.6236 5.29889e-08 5.30963e-06 5.30963e-06
71 2 6.25693 8.44029 10.6236 1.33531e-05 -1.28835e-05 5.30945e-06
72 2 6.25693 10.6236 8.44029 1.33531e-05 5.30945e-06 -1.28835e-05
73 2 8.44029 12.807 12.807 -1.28831e-05 8.09637e-06 8.09637e-06
74 2 8.44029 1.89022 1.89022 -1.28833e-05 -1.39284e-05 -1.39284e-05
75 2 10.6236 12.807 1.89022 5.30941e-06 8.09653e-06 -1.39285e-05
76 2 10.6236 1.89022 12.807 5.30941e-06 -1.39285e-05 8.09653e-06
77 2 8.44029 12.807 4.07358 -1.28835e-05 8.09659e-06 5.29887e-08
78 2 8.44029 1.89022 6.25693 -1.28833e-05 -1.39284e-05 1.33529e-05
79 2 10.6236 12.807 6.25693 5.30941e-06 8.09653e-06 1.3353e-05
80 2 10.6236 1.89022 4.07358 5.30956e-06 -1.39289e-05 5.29886e-08
81 2 8.44029 12.807 8.44029 -1.28832e-05 8.09643e-06 -1.28832e-05
82 2 8.44029 1.89022 10.6236 -1.28835e-05 -1.39286e-05 5.30945e-06
83 2 10.6236 12.807 10.6236 5.30948e-06 8.09663e-06 5.30948e-06
84 2 10.6236 1.89022 8.44029 5.30945e-06 -1.39286e-05 -1.28835e-05
85 2 8.44029 4.07358 12.807 -1.28835e-05 5.29887e-08 8.09659e-06
86 2 8.44029 6.25693 1.89022 -1.28833e-05 1.33529e-05 -1.39284e-05
87 2 10.6236 4.07358 1.89022 5.30956e-06 5.29886e-08 -1.39289e-05
88 2 10.6236 6.25693 12.807 5.30941e-06 1.3353e-05 8.09653e-06
89 2 8.44029 4.07358 4.07358 -1.28839e-05 5.29879e-08 5.29879e-08
90 2 8.44029 6.25693 6.25693 -1.28833e-05 1.33529e-05 1.33529e-05
91 2 10.6236 4.07358 6.25693 5.30956e-06 5.29883e-08 1.33533e-05
92 2 10.6236 6.25693 4.07358 5.30956e-06 1.33533e-05 5.29883e-08
93 2 8.44029 4.07358 8.44029 -1.28836e-05 5.29883e-08 -1.28836e-05
94 2 8.44029 6.25693 10.6236 -1.28835e-05 1.33531e-05 5.30945e-06
95 2 10.6236 4.07358 10.6236 5.30963e-06 5.29889e-08 5.30963e-06
96 2 10.6236 6.25693 8.44029 5.30945e-06 1.33531e-05 -1.28835e-05
97 2 8.44029 8.44029 12.807 -1.28832e-05 -1.28832e-05 8.09643e-06
98 2 8.44029 10.6236 1.89022 -1.28835e-05 5.30945e-06 -1.39286e-05
99 2 10.6236 8.44029 1.89022 5.30945e-06 -1.28835e-05 -1.39286e-05
100 2 10.6236 10.6236 12.807 5.30948e-06 5.30948e-06 8.09663e-06
101 2 8.44029 8.44029 4.07358 -1.28836e-05 -1.28836e-05 5.29883e-08
102 2 8.44029 10.6236 6.25693 -1.28835e-05 5.30945e-06 1.33531e-05
103 2 10.6236 8.44029 6.25693 5.30945e-06 -1.28835e-05 1.33531e-05
104 2 10.6236 10.6236 4.07358 5.30963e-06 5.30963e-06 5.29889e-08
105 2 8.44029 8.44029 8.44029 -1.28833e-05 -1.28833e-05 -1.28833e-05
106 2 8.44029 10.6236 10.6236 -1.28837e-05 5.30952e-06 5.30952e-06
107 2 10.6236 8.44029 10.6236 5.30952e-06 -1.28837e-05 5.30952e-06
108 2 10.6236 10.6236 8.44029 5.30952e-06 5.30952e-06 -1.28837e-05
ITEM: TIMESTEP
50
ITEM: NUMBER OF ATOMS
108
ITEM: BOX BOUNDS xy xz yz pp pp pp
-2.8656748559999956e-01 1.2800431485599988e+01 0.0000000000000000e+00
-2.8656748559999956e-01 1.2800431485599988e+01 0.0000000000000000e+00
-2.8656748559999956e-01 1.2800431485599988e+01 0.0000000000000000e+00
ITEM: ATOMS id type x y z fx fy fz
1 2 12.8004 12.8004 12.8004 8.30907e-06 8.30907e-06 8.30907e-06
2 2 12.8004 1.8946 1.8946 8.3092e-06 -1.42824e-05 -1.42824e-05