LAMMPS (29 Oct 2020)
OMP_NUM_THREADS environment is not set. Defaulting to 1 thread. (src/comm.cpp:94)
  using 1 OpenMP thread(s) per MPI task
Reading data file ...
  orthogonal box = (0.0000000 0.0000000 0.0000000) to (12.513864 12.513864 12.513864)
  1 by 1 by 1 MPI processor grid
  reading atoms ...
  108 atoms
  read_data CPU = 0.001 seconds
Changing box ...
  triclinic box = (0.0000000 0.0000000 0.0000000) to (12.513864 12.513864 12.513864) with tilt (0.0000000 0.0000000 0.0000000)
ERROR: Unrecognized pair style 'nnp' (src/force.cpp:279)
Last command: pair_style nnp dir ../../Potentials/Seed${seed} showew no showewsum 100 resetew no maxew 10000000 cflength 1.0 cfenergy 1.0 emap "2:Au"
