LAMMPS (29 Oct 2020)
variable seed equal 1
# Compute elastic constant tensor for a crystal
#
# Written by Aidan Thompson (Sandia, athomps@sandia.gov)
#
#  This script uses the following three include files.
#
#   init.mod      (must be modified for different crystal structures)
# 	       	  Define units, deformation parameters and initial
#		  configuration of the atoms and simulation cell.
#
#
#   potential.mod    (must be modified for different pair styles)
# 		     Define pair style and other attributes
#		     not stored in restart file
#
#
#   displace.mod    (displace.mod should not need to be modified)
# 		    Perform positive and negative box displacements
# 		    in direction ${dir} and size ${up}.
# 		    It uses the resultant changes
#		    in stress to compute one
# 		    row of the elastic stiffness tensor
#
#		    Inputs variables:
#		    	   dir = the Voigt deformation component
#		    		    (1,2,3,4,5,6)
#		    Global constants:
#       	    	   up = the deformation magnitude (strain units)
#       		   cfac = conversion from LAMMPS pressure units to
#               	   output units for elastic constants
#
#
#  To run this on a different system, it should only be necessary to
#  modify the files init.mod and potential.mod. In order to calculate
#  the elastic constants correctly, care must be taken to specify
#  the correct units in init.mod (units, cfac and cunits). It is also
#  important to verify that the minimization of energy w.r.t atom
#  positions in the deformed cell is fully converged.
#  One indication of this is that the elastic constants are insensitive
#  to the choice of the variable ${up} in init.mod. Another is to check
#  the final max and two-norm forces reported in the log file. If you know
#  that minimization is not required, you can set maxiter = 0.0 in
#  init.mod.
#

include init.mod
# NOTE: This script can be modified for different atomic structures,
# units, etc. See in.elastic for more info.
#

# Define the finite deformation size. Try several values of this
# variable to verify that results do not depend on it.
variable up equal 1.0e-5

# Define the amount of random jiggle for atoms
# This prevents atoms from staying on saddle points
variable atomjiggle equal 1.0e-5

# Uncomment one of these blocks, depending on what units
# you are using in LAMMPS and for output

# metal units, elastic constants in eV/A^3
#units		metal
#variable cfac equal 6.2414e-7
#variable cunits string eV/A^3

# metal units, elastic constants in GPa
units		metal
variable cfac equal 1.0e-4
variable cunits string GPa

# real units, elastic constants in GPa
#units		real
#variable cfac equal 1.01325e-4
#variable cunits string GPa

# Define minimization parameters
variable etol equal 0.0
variable ftol equal 1.0e-10
variable maxiter equal 10000
variable maxeval equal 10000
variable dmax equal 1.0e-2

# generate the box and atom positions using a diamond lattice
boundary	p p p

read_data IN.data
Reading data file ...
  orthogonal box = (0.0000000 0.0000000 0.0000000) to (12.513864 12.513864 12.513864)
  1 by 1 by 1 MPI processor grid
  reading atoms ...
  108 atoms
  read_data CPU = 0.003 seconds

change_box all triclinic
Changing box ...
  triclinic box = (0.0000000 0.0000000 0.0000000) to (12.513864 12.513864 12.513864) with tilt (0.0000000 0.0000000 0.0000000)



include potential.mod
# NOTE: This script can be modified for different pair styles
# See in.elastic for more info.

# Choose potential
pair_style nnp dir ../../Potentials/Seed${seed} showew no showewsum 100 resetew no maxew 10000000 cflength 1.0 cfenergy 1.0 emap "2:Au"
pair_style nnp dir ../../Potentials/Seed1 showew no showewsum 100 resetew no maxew 10000000 cflength 1.0 cfenergy 1.0 emap "2:Au"
pair_coeff * * 6.01

# Setup neighbor style
neighbor 2.5 bin
neigh_modify every 2 delay 0 check yes

# Setup minimization style
min_style	     cg
min_modify	     dmax ${dmax} line quadratic
min_modify	     dmax 0.01 line quadratic

# Setup output
thermo		1
thermo_style custom step temp pe press pxx pyy pzz pxy pxz pyz lx ly lz vol
thermo_modify norm no

# Compute initial state#

fix               mydeform all deform 1 x scale 1.05  y scale 1.05  z scale 1.05  units box
run               10

*******************************************************************************

WELCOME TO n²p², A SOFTWARE PACKAGE FOR NEURAL NETWORK POTENTIALS!
------------------------------------------------------------------

n²p² version  (from git): v2.2.0-1-g6be249e1
             (version.h): v2.2.0
------------------------------------------------------------
Git branch              : master
Git revision            : 6be249e19d1cbabf487753a56a86f9b6395c0bdb
Compile date/time       : Jun 17 2022 01:39:15
------------------------------------------------------------

Features/Flags:
------------------------------------------------------------
Symmetry function groups     : enabled
Symmetry function cache      : enabled
Timing function available    : available
Asymmetric polynomial SFs    : available
SF low neighbor number check : enabled
SF derivative memory layout  : reduced
MPI explicitly disabled      : no
------------------------------------------------------------

Please cite the following papers when publishing results obtained with n²p²:
-------------------------------------------------------------------------------
 * General citation for n²p² and the LAMMPS interface:

 Singraber, A.; Behler, J.; Dellago, C.
 Library-Based LAMMPS Implementation of High-Dimensional
 Neural Network Potentials.
 J. Chem. Theory Comput. 2019 15 (3), 1827–1840.
 https://doi.org/10.1021/acs.jctc.8b00770
-------------------------------------------------------------------------------
 * Additionally, if you use the NNP training features of n²p²:

 Singraber, A.; Morawietz, T.; Behler, J.; Dellago, C.
 Parallel Multistream Training of High-Dimensional Neural
 Network Potentials.
 J. Chem. Theory Comput. 2019, 15 (5), 3075–3092.
 https://doi.org/10.1021/acs.jctc.8b01092
-------------------------------------------------------------------------------
 * Additionally, if polynomial symmetry functions are used:

 Bircher, M. P.; Singraber, A.; Dellago, C.
 Improved Description of Atomic Environments Using Low-Cost
 Polynomial Functions with Compact Support.
 arXiv:2010.14414 [cond-mat, physics:physics] 2020.
 https://arxiv.org/abs/2010.14414
*******************************************************************************

*** SETUP: SETTINGS FILE ******************************************************

Settings file name: ../../Potentials/Seed1/input.nn
Read 139 lines.
Found 75 lines with keywords.
This settings file defines a short-range only NNP.
*******************************************************************************

*** SETUP: NORMALIZATION ******************************************************

Data set normalization is not used.
*******************************************************************************

*** SETUP: ELEMENT MAP ********************************************************

Number of element strings found: 1
Element  0: Au ( 79)
*******************************************************************************

*** SETUP: ELEMENTS ***********************************************************

Number of elements is consistent: 1
Atomic energy offsets per element:
Element  0:   0.00000000E+00
Energy offsets are automatically subtracted from reference energies.
*******************************************************************************

*** SETUP: CUTOFF FUNCTIONS ***************************************************

Parameter alpha for inner cutoff: 0.000000
Inner cutoff = Symmetry function cutoff * alpha
Equal cutoff function type for all symmetry functions:
CutoffFunction::CT_POLY2 (6)
x := (r - rc * alpha) / (rc - rc * alpha)
f(x) = ((15 - 6x)x - 10)x^3 + 1
*******************************************************************************

*** SETUP: SYMMETRY FUNCTIONS *************************************************

Abbreviations:
--------------
ind .... Symmetry function index.
ec ..... Central atom element.
tp ..... Symmetry function type.
sbtp ... Symmetry function subtype (e.g. cutoff type).
e1 ..... Neighbor 1 element.
e2 ..... Neighbor 2 element.
eta .... Gaussian width eta.
rs/rl... Shift distance of Gaussian or left cutoff radius for polynomial.
angl.... Left cutoff angle for polynomial.
angr.... Right cutoff angle for polynomial.
la ..... Angle prefactor lambda.
zeta ... Angle term exponent zeta.
rc ..... Cutoff radius / right cutoff radius for polynomial.
a ...... Free parameter alpha (e.g. cutoff alpha).
ln ..... Line number in settings file.

Short range atomic symmetry functions element Au :
-------------------------------------------------------------------------------------------------
 ind ec tp sbtp e1 e2       eta      rs/rl         rc   angl   angr la zeta    a    ln
-------------------------------------------------------------------------------------------------
   1 Au  2  ct6 Au    6.428E-03 -5.000E-01  6.000E+00                       0.00   105
   2 Au  2  ct6 Au    1.036E-02 -5.000E-01  6.000E+00                       0.00   107
   3 Au  2  ct6 Au    1.286E-02 -5.000E-01  6.000E+00                       0.00   106
   4 Au  2  ct6 Au    5.142E-02 -5.000E-01  6.000E+00                       0.00   108
   5 Au  2  ct6 Au    1.028E-01 -5.000E-01  6.000E+00                       0.00   109
   6 Au  2  ct6 Au    2.057E-01 -5.000E-01  6.000E+00                       0.00   110
   7 Au  2  ct6 Au    4.114E-01 -5.000E-01  6.000E+00                       0.00   111
   8 Au  2  ct6 Au    8.228E-01 -5.000E-01  6.000E+00                       0.00   112
   9 Au  9  ct6 Au Au 3.570E-04  0.000E+00  6.000E+00                1  2.0 0.00   118
  10 Au  9  ct6 Au Au 5.357E-03  0.000E+00  6.000E+00                1  2.0 0.00   119
  11 Au  9  ct6 Au Au 1.036E-02  0.000E+00  6.000E+00                1  2.0 0.00   120
  12 Au  9  ct6 Au Au 1.536E-02  0.000E+00  6.000E+00               -1  2.0 0.00   121
  13 Au  9  ct6 Au Au 2.036E-02  0.000E+00  6.000E+00               -1  2.0 0.00   122
  14 Au  9  ct6 Au Au 2.536E-02  0.000E+00  6.000E+00               -1  2.0 0.00   123
  15 Au  9  ct6 Au Au 3.036E-02  0.000E+00  6.000E+00                1  3.0 0.00   124
  16 Au  9  ct6 Au Au 3.536E-02  0.000E+00  6.000E+00                1  3.0 0.00   125
  17 Au  9  ct6 Au Au 4.036E-02  0.000E+00  6.000E+00                1  3.0 0.00   126
  18 Au  9  ct6 Au Au 4.536E-02  0.000E+00  6.000E+00               -1  3.0 0.00   127
  19 Au  9  ct6 Au Au 5.036E-02  0.000E+00  6.000E+00               -1  3.0 0.00   128
  20 Au  9  ct6 Au Au 5.536E-02  0.000E+00  6.000E+00               -1  3.0 0.00   129
  21 Au  9  ct6 Au Au 7.536E-02  0.000E+00  6.000E+00               -1  4.0 0.00   133
  22 Au  9  ct6 Au Au 8.036E-02  0.000E+00  6.000E+00               -1  4.0 0.00   134
  23 Au  9  ct6 Au Au 8.536E-02  0.000E+00  6.000E+00               -1  4.0 0.00   135
  24 Au  9  ct6 Au Au 6.036E-01  0.000E+00  6.000E+00                1  4.0 0.00   130
  25 Au  9  ct6 Au Au 6.536E-01  0.000E+00  6.000E+00                1  4.0 0.00   131
  26 Au  9  ct6 Au Au 7.036E-01  0.000E+00  6.000E+00                1  4.0 0.00   132
-------------------------------------------------------------------------------------------------
Minimum cutoff radius for element Au: 6.000000
Maximum cutoff radius (global)      : 6.000000
*******************************************************************************

*** SETUP: SYMMETRY FUNCTION MEMORY *******************************************

Symmetry function derivatives memory table for element Au :
-------------------------------------------------------------------------------
Relevant symmetry functions for neighbors with element:
- Au:   26 of   26 (100.0 %)
-------------------------------------------------------------------------------
*******************************************************************************

*** SETUP: SYMMETRY FUNCTION CACHE ********************************************

Element Au: in total 2 caches, used 26.00 times on average.
*******************************************************************************

*** SETUP: SYMMETRY FUNCTION GROUPS *******************************************

Abbreviations:
--------------
ind .... Symmetry function index.
ec ..... Central atom element.
tp ..... Symmetry function type.
sbtp ... Symmetry function subtype (e.g. cutoff type).
e1 ..... Neighbor 1 element.
e2 ..... Neighbor 2 element.
eta .... Gaussian width eta.
rs/rl... Shift distance of Gaussian or left cutoff radius for polynomial.
angl.... Left cutoff angle for polynomial.
angr.... Right cutoff angle for polynomial.
la ..... Angle prefactor lambda.
zeta ... Angle term exponent zeta.
rc ..... Cutoff radius / right cutoff radius for polynomial.
a ...... Free parameter alpha (e.g. cutoff alpha).
ln ..... Line number in settings file.
mi ..... Member index.
sfi .... Symmetry function index.
e ...... Recalculate exponential term.

Short range atomic symmetry function groups element Au :
----------------------------------------------------------------------------------------------------------
 ind ec tp sbtp e1 e2       eta      rs/rl         rc   angl   angr la zeta    a    ln   mi  sfi e
----------------------------------------------------------------------------------------------------------
   1 Au  2  ct6 Au            *          *  6.000E+00                       0.00     *    *    *  
   -  -  -    -  -    6.428E-03 -5.000E-01          -                          -   105    1    1  
   -  -  -    -  -    1.036E-02 -5.000E-01          -                          -   107    2    2  
   -  -  -    -  -    1.286E-02 -5.000E-01          -                          -   106    3    3  
   -  -  -    -  -    5.142E-02 -5.000E-01          -                          -   108    4    4  
   -  -  -    -  -    1.028E-01 -5.000E-01          -                          -   109    5    5  
   -  -  -    -  -    2.057E-01 -5.000E-01          -                          -   110    6    6  
   -  -  -    -  -    4.114E-01 -5.000E-01          -                          -   111    7    7  
   -  -  -    -  -    8.228E-01 -5.000E-01          -                          -   112    8    8  
   2 Au  9  ct6 Au Au         *          *  6.000E+00                *    * 0.00     *    *    * *
   -  -  -    -  -  - 3.570E-04  0.000E+00          -                1  2.0    -   118    1    9 1
   -  -  -    -  -  - 5.357E-03  0.000E+00          -                1  2.0    -   119    2   10 1
   -  -  -    -  -  - 1.036E-02  0.000E+00          -                1  2.0    -   120    3   11 1
   -  -  -    -  -  - 1.536E-02  0.000E+00          -               -1  2.0    -   121    4   12 1
   -  -  -    -  -  - 2.036E-02  0.000E+00          -               -1  2.0    -   122    5   13 1
   -  -  -    -  -  - 2.536E-02  0.000E+00          -               -1  2.0    -   123    6   14 1
   -  -  -    -  -  - 3.036E-02  0.000E+00          -                1  3.0    -   124    7   15 1
   -  -  -    -  -  - 3.536E-02  0.000E+00          -                1  3.0    -   125    8   16 1
   -  -  -    -  -  - 4.036E-02  0.000E+00          -                1  3.0    -   126    9   17 1
   -  -  -    -  -  - 4.536E-02  0.000E+00          -               -1  3.0    -   127   10   18 1
   -  -  -    -  -  - 5.036E-02  0.000E+00          -               -1  3.0    -   128   11   19 1
   -  -  -    -  -  - 5.536E-02  0.000E+00          -               -1  3.0    -   129   12   20 1
   -  -  -    -  -  - 7.536E-02  0.000E+00          -               -1  4.0    -   133   13   21 1
   -  -  -    -  -  - 8.036E-02  0.000E+00          -               -1  4.0    -   134   14   22 1
   -  -  -    -  -  - 8.536E-02  0.000E+00          -               -1  4.0    -   135   15   23 1
   -  -  -    -  -  - 6.036E-01  0.000E+00          -                1  4.0    -   130   16   24 1
   -  -  -    -  -  - 6.536E-01  0.000E+00          -                1  4.0    -   131   17   25 1
   -  -  -    -  -  - 7.036E-01  0.000E+00          -                1  4.0    -   132   18   26 1
----------------------------------------------------------------------------------------------------------
*******************************************************************************

*** SETUP: NEURAL NETWORKS ****************************************************

Normalize neurons (all elements): 0
-------------------------------------------------------------------------------
Atomic short range NN for element Au :
Number of weights    :   1300
Number of biases     :     51
Number of connections:   1351
Architecture       26   25   25    1
-------------------------------------------------------------------------------
   1   G   t   t   l
   2   G   t   t    
   3   G   t   t    
   4   G   t   t    
   5   G   t   t    
   6   G   t   t    
   7   G   t   t    
   8   G   t   t    
   9   G   t   t    
  10   G   t   t    
  11   G   t   t    
  12   G   t   t    
  13   G   t   t    
  14   G   t   t    
  15   G   t   t    
  16   G   t   t    
  17   G   t   t    
  18   G   t   t    
  19   G   t   t    
  20   G   t   t    
  21   G   t   t    
  22   G   t   t    
  23   G   t   t    
  24   G   t   t    
  25   G   t   t    
  26   G            
-------------------------------------------------------------------------------
*******************************************************************************

*** SETUP: SYMMETRY FUNCTION SCALING ******************************************

Equal scaling type for all symmetry functions:
Scaling type::ST_SCALESIGMA (4)
Gs = Smin + (Smax - Smin) * (G - Gmean) / Gsigma
Smin = 0.000000
Smax = 1.000000
Symmetry function scaling statistics from file: ../../Potentials/Seed1/scaling.data
-------------------------------------------------------------------------------

Abbreviations:
--------------
ind ..... Symmetry function index.
min ..... Minimum symmetry function value.
max ..... Maximum symmetry function value.
mean .... Mean symmetry function value.
sigma ... Standard deviation of symmetry function values.
sf ...... Scaling factor for derivatives.
Smin .... Desired minimum scaled symmetry function value.
Smax .... Desired maximum scaled symmetry function value.
t ....... Scaling type.

Scaling data for symmetry functions element Au :
-------------------------------------------------------------------------------
 ind       min       max      mean     sigma        sf  Smin  Smax t
-------------------------------------------------------------------------------
   1  9.85E-01  7.64E+00  6.48E+00  9.34E-01  1.07E+00  0.00  1.00 4
   2  9.30E-01  7.23E+00  6.13E+00  8.81E-01  1.13E+00  0.00  1.00 4
   3  8.96E-01  6.99E+00  5.91E+00  8.50E-01  1.18E+00  0.00  1.00 4
   4  5.27E-01  4.22E+00  3.47E+00  4.98E-01  2.01E+00  0.00  1.00 4
   5  2.65E-01  2.26E+00  1.78E+00  2.58E-01  3.88E+00  0.00  1.00 4
   6  7.52E-02  7.09E-01  5.03E-01  7.61E-02  1.31E+01  0.00  1.00 4
   7  7.46E-03  7.96E-02  4.50E-02  8.01E-03  1.25E+02  0.00  1.00 4
   8  3.95E-05  1.48E-03  4.30E-04  1.37E-04  7.31E+03  0.00  1.00 4
   9  4.85E-01  1.94E+01  1.43E+01  3.39E+00  2.95E-01  0.00  1.00 4
  10  4.26E-01  1.74E+01  1.28E+01  3.03E+00  3.30E-01  0.00  1.00 4
  11  3.75E-01  1.56E+01  1.14E+01  2.70E+00  3.70E-01  0.00  1.00 4
  12  1.45E-02  1.69E+01  1.21E+01  3.41E+00  2.93E-01  0.00  1.00 4
  13  1.26E-02  1.52E+01  1.09E+01  3.06E+00  3.27E-01  0.00  1.00 4
  14  1.10E-02  1.38E+01  9.81E+00  2.75E+00  3.64E-01  0.00  1.00 4
  15  1.82E-01  7.09E+00  5.10E+00  1.19E+00  8.40E-01  0.00  1.00 4
  16  1.60E-01  6.38E+00  4.57E+00  1.07E+00  9.35E-01  0.00  1.00 4
  17  1.42E-01  5.75E+00  4.10E+00  9.61E-01  1.04E+00  0.00  1.00 4
  18  1.38E-03  6.99E+00  4.85E+00  1.37E+00  7.28E-01  0.00  1.00 4
  19  1.20E-03  6.35E+00  4.38E+00  1.24E+00  8.06E-01  0.00  1.00 4
  20  1.04E-03  5.78E+00  3.96E+00  1.12E+00  8.92E-01  0.00  1.00 4
  21  1.49E-04  3.19E+00  2.13E+00  6.07E-01  1.65E+00  0.00  1.00 4
  22  1.29E-04  2.92E+00  1.93E+00  5.51E-01  1.82E+00  0.00  1.00 4
  23  1.11E-04  2.66E+00  1.75E+00  5.00E-01  2.00E+00  0.00  1.00 4
  24  1.97E-07  4.15E-04  1.20E-04  4.32E-05  2.32E+04  0.00  1.00 4
  25  6.13E-08  1.99E-04  5.20E-05  1.99E-05  5.02E+04  0.00  1.00 4
  26  1.91E-08  9.84E-05  2.27E-05  9.28E-06  1.08E+05  0.00  1.00 4
-------------------------------------------------------------------------------
*******************************************************************************

*** SETUP: SYMMETRY FUNCTION STATISTICS ***************************************

Equal symmetry function statistics for all elements.
Collect min/max/mean/sigma                        : 0
Collect extrapolation warnings                    : 1
Write extrapolation warnings immediately to stderr: 0
Halt on any extrapolation warning                 : 0
*******************************************************************************

*** SETUP: NEURAL NETWORK WEIGHTS *********************************************

Short  NN weight file name format: ../../Potentials/Seed1/weights.%03d.data
Setting short  NN weights for element Au from file: ../../Potentials/Seed1/weights.079.data
*******************************************************************************

*** SETUP: LAMMPS INTERFACE ***************************************************

Individual extrapolation warnings will not be shown.
Extrapolation warning summary will be shown every 100 timesteps.
The simulation will be stopped when 10000000 extrapolation warnings are exceeded.
Extrapolation warnings are accumulated over all time steps.
-------------------------------------------------------------------------------
CAUTION: If the LAMMPS unit system differs from the one used
         during NN training, appropriate conversion factors
         must be provided (see keywords cflength and cfenergy).

Length unit conversion factor:   1.0000000000000000E+00
Energy unit conversion factor:   1.0000000000000000E+00

Checking consistency of cutoff radii (in LAMMPS units):
LAMMPS Cutoff (via pair_coeff)  :   6.010E+00
Maximum symmetry function cutoff:   6.000E+00
Cutoff radii are consistent.
-------------------------------------------------------------------------------
Element mapping string from LAMMPS to n2p2: "2:Au"

CAUTION: Please ensure that this mapping between LAMMPS
         atom types and NNP elements is consistent:

---------------------------
LAMMPS type  |  NNP element
---------------------------
          1 <-> --
          2 <-> Au ( 79)
---------------------------

NNP setup for LAMMPS completed.
*******************************************************************************
Neighbor list info ...
  update every 2 steps, delay 0 steps, check yes
  max neighbors/atom: 2000, page size: 100000
  master list distance cutoff = 8.51
  ghost atom cutoff = 8.51
  binsize = 4.255, bins = 3 3 3
  1 neighbor lists, perpetual/occasional/extra = 1 0 0
  (1) pair nnp, perpetual
      attributes: full, newton on
      pair build: full/bin/atomonly
      stencil: full/bin/3d
      bin: standard
### NNP EW SUMMARY ### TS:          0 EW          0 EWPERSTEP  0.000E+00
Per MPI rank memory allocation (min/avg/max) = 3.125 | 3.125 | 3.125 Mbytes
Step Temp PotEng Press Pxx Pyy Pzz Pxy Pxz Pyz Lx Ly Lz Volume 
       0            0   -353.45184    1203.6212    1203.6212    1203.6212    1203.6212 1.4711797e-09 2.142234e-09 1.9220054e-09    12.513864    12.513864    12.513864     1959.631 
       1            0   -353.45184     1185.746     1185.746     1185.746     1185.746 1.4776629e-09 2.2096814e-09 2.0876491e-09    12.576433    12.576433    12.576433    1989.1726 
       2            0   -353.29611   -17482.501   -17482.501   -17482.501   -17482.501 -1.5191675e-10 3.9514492e-10 5.4871864e-10    12.639003    12.639003    12.639003    2019.0097 
       3            0   -352.80355   -34310.664   -34310.664   -34310.664   -34310.664 -1.4332153e-09 -4.3151994e-09 -4.2211605e-09    12.701572    12.701572    12.701572    2049.1437 
       4            0   -352.00154   -49423.938   -49423.938   -49423.938   -49423.938 8.1416749e-10 2.6760921e-10 4.4080711e-11    12.764141    12.764141    12.764141    2079.5761 
       5            0   -350.91546   -63014.589   -63014.589   -63014.589   -63014.589 2.8958287e-10 -2.3030584e-09 -2.7839233e-09    12.826711    12.826711    12.826711    2110.3082 
       6            0   -349.56666   -75367.993   -75367.993   -75367.993   -75367.993 2.8611896e-10 -7.8103589e-10 -6.5799101e-10     12.88928     12.88928     12.88928    2141.3417 
       7            0   -347.97267   -86653.832   -86653.832   -86653.832   -86653.832 -1.6728049e-10 7.5594774e-10 7.9713543e-10    12.951849    12.951849    12.951849    2172.6779 
       8            0   -346.14897   -96979.868   -96979.868   -96979.868   -96979.868 6.6474224e-10 2.1218239e-09 2.0620901e-09    13.014419    13.014419    13.014419    2204.3183 
       9            0    -344.1099   -106405.78   -106405.78   -106405.78   -106405.78 2.2977045e-10 2.027653e-10 2.3689231e-10    13.076988    13.076988    13.076988    2236.2645 
      10            0   -341.86946   -114961.15   -114961.15   -114961.15   -114961.15 7.083675e-10 6.5274533e-10 7.2537957e-10    13.139557    13.139557    13.139557    2268.5178 
Loop time of 0.668985 on 1 procs for 10 steps with 108 atoms

Performance: 1.292 ns/day, 18.583 hours/ns, 14.948 timesteps/s
99.7% CPU use with 1 MPI tasks x no OpenMP threads

MPI task timing breakdown:
Section |  min time  |  avg time  |  max time  |%varavg| %total
---------------------------------------------------------------
Pair    | 0.66835    | 0.66835    | 0.66835    |   0.0 | 99.91
Neigh   | 0          | 0          | 0          |   0.0 |  0.00
Comm    | 0.00011555 | 0.00011555 | 0.00011555 |   0.0 |  0.02
Output  | 0.00042033 | 0.00042033 | 0.00042033 |   0.0 |  0.06
Modify  | 4.1936e-05 | 4.1936e-05 | 4.1936e-05 |   0.0 |  0.01
Other   |            | 5.406e-05  |            |       |  0.01

Nlocal:        108.000 ave         108 max         108 min
Histogram: 1 0 0 0 0 0 0 0 0 0
Nghost:        1580.00 ave        1580 max        1580 min
Histogram: 1 0 0 0 0 0 0 0 0 0
Neighs:        0.00000 ave           0 max           0 min
Histogram: 1 0 0 0 0 0 0 0 0 0
FullNghs:      15120.0 ave       15120 max       15120 min
Histogram: 1 0 0 0 0 0 0 0 0 0

Total # of neighbors = 15120
Ave neighs/atom = 140.00000
Neighbor list builds = 0
Dangerous builds = 0
unfix mydeform

dump            myDump all custom 10  dump.lammpstrj id type x y z fx fy fz
dump_modify     myDump sort id

fix 3 all box/relax  aniso 0.0
minimize ${etol} ${ftol} ${maxiter} ${maxeval}
minimize 0 ${ftol} ${maxiter} ${maxeval}
minimize 0 1e-10 ${maxiter} ${maxeval}
minimize 0 1e-10 10000 ${maxeval}
minimize 0 1e-10 10000 10000
WARNING: Using 'neigh_modify every 1 delay 0 check yes' setting during minimization (../min.cpp:187)
Per MPI rank memory allocation (min/avg/max) = 5.515 | 5.515 | 5.515 Mbytes
Step Temp PotEng Press Pxx Pyy Pzz Pxy Pxz Pyz Lx Ly Lz Volume 
      10            0   -339.44165   -124428.21   -124428.21   -124428.21   -124428.21 6.4105185e-10 1.439889e-09 1.2492789e-09    13.139557    13.139557    13.139557    2268.5178 
      11            0   -339.49447   -124272.91   -124272.91   -124272.91   -124272.91 -3.8206026e-10 1.3883134e-10 3.4653829e-10    13.138243    13.138243    13.138243    2267.8373 
      12            0   -339.54721   -124117.23   -124117.23   -124117.23   -124117.23 -1.6884852e-10 -7.4566442e-11 2.6465914e-10    13.136929    13.136929    13.136929     2267.157 
      13            0   -339.59987   -123961.19   -123961.19   -123961.19   -123961.19 -1.9792332e-10 1.5617322e-10 7.5071719e-11    13.135615    13.135615    13.135615    2266.4767 
      14            0   -339.65245   -123804.78   -123804.78   -123804.78   -123804.78 1.8494224e-11 1.5122468e-10  2.88523e-10    13.134301    13.134301    13.134301    2265.7967 
      15            0   -339.70496      -123648      -123648      -123648      -123648 6.9668777e-12 1.3137175e-11 1.8264566e-11    13.132987    13.132987    13.132987    2265.1167 
      16            0   -339.75739   -123490.85   -123490.85   -123490.85   -123490.85 1.9104586e-10 3.3244451e-10 1.6809445e-10    13.131673    13.131673    13.131673    2264.4369 
      17            0   -339.80975   -123333.34   -123333.34   -123333.34   -123333.34 -7.2524573e-10 2.1313771e-11 -5.914667e-11     13.13036     13.13036     13.13036    2263.7572 
      18            0   -339.86202   -123175.45   -123175.45   -123175.45   -123175.45 -1.1874126e-10 -5.1968605e-10 -2.5360873e-10    13.129046    13.129046    13.129046    2263.0777 
      19            0   -339.91422   -123017.19   -123017.19   -123017.19   -123017.19 3.1069234e-10 1.2280444e-09 1.240883e-09    13.127732    13.127732    13.127732    2262.3983 
      20            0   -339.96634   -122858.56   -122858.56   -122858.56   -122858.56 -3.8894191e-10 2.236376e-10 9.2407164e-11    13.126418    13.126418    13.126418     2261.719 
      21            0   -340.01839   -122699.56   -122699.56   -122699.56   -122699.56 1.7765394e-10 3.065531e-11 2.0513259e-11    13.125104    13.125104    13.125104    2261.0399 
      22            0   -340.07035   -122540.19   -122540.19   -122540.19   -122540.19 1.0590618e-10 6.7374461e-11 1.7522365e-10     13.12379     13.12379     13.12379    2260.3609 
      23            0   -340.12224   -122380.45   -122380.45   -122380.45   -122380.45 1.743601e-11 9.3214268e-10 1.0302313e-09    13.122476    13.122476    13.122476    2259.6821 
      24            0   -340.17405   -122220.34   -122220.34   -122220.34   -122220.34 -6.9954315e-10 2.684261e-10 2.5587514e-10    13.121162    13.121162    13.121162    2259.0033 
      25            0   -340.22578   -122059.86   -122059.86   -122059.86   -122059.86 2.3498527e-11 -7.0166974e-10 -9.0920303e-10    13.119848    13.119848    13.119848    2258.3248 
      26            0   -340.27743      -121899      -121899      -121899      -121899 5.2054228e-10 -5.4121433e-11 -2.0946593e-10    13.118534    13.118534    13.118534    2257.6463 
      27            0   -340.32901   -121737.77   -121737.77   -121737.77   -121737.77 5.2841508e-10 -2.3628801e-10 -2.6105177e-10     13.11722     13.11722     13.11722     2256.968 
      28            0    -340.3805   -121576.16   -121576.16   -121576.16   -121576.16 4.8393884e-11 -6.7904684e-10 -6.7406753e-10    13.115906    13.115906    13.115906    2256.2898 
      29            0   -340.43192   -121414.19   -121414.19   -121414.19   -121414.19 -5.7736234e-11 -3.9351794e-11 1.3446143e-11    13.114592    13.114592    13.114592    2255.6118 
      30            0   -340.48326   -121251.84   -121251.84   -121251.84   -121251.84 2.0693126e-10 7.0383354e-10 8.0166955e-10    13.113278    13.113278    13.113278    2254.9339 
      31            0   -340.53451   -121089.11   -121089.11   -121089.11   -121089.11 2.8715013e-10 -3.4510799e-10 -2.2581213e-10    13.111964    13.111964    13.111964    2254.2561 
      32            0   -340.58569   -120926.02   -120926.02   -120926.02   -120926.02 -6.5314065e-10 -9.1418039e-10 -8.30659e-10     13.11065     13.11065     13.11065    2253.5785 
      33            0   -340.63679   -120762.54   -120762.54   -120762.54   -120762.54 5.5708768e-11 5.9678042e-10 6.9859293e-10    13.109336    13.109336    13.109336     2252.901 
      34            0   -340.68781    -120598.7    -120598.7    -120598.7    -120598.7 1.2441304e-10 -9.7247981e-11 -1.8135395e-10    13.108022    13.108022    13.108022    2252.2236 
      35            0   -340.73876   -120434.48   -120434.48   -120434.48   -120434.48 1.7939147e-10 -1.7290655e-10 -2.8955621e-10    13.106708    13.106708    13.106708    2251.5464 
      36            0   -340.78962   -120269.88   -120269.88   -120269.88   -120269.88 -3.2859292e-11 -1.095382e-09 -1.0271115e-09    13.105394    13.105394    13.105394    2250.8693 
      37            0    -340.8404   -120104.91   -120104.91   -120104.91   -120104.91 -1.7494295e-10 -8.3418885e-10 -9.38945e-10     13.10408     13.10408     13.10408    2250.1924 
      38            0    -340.8911   -119939.56   -119939.56   -119939.56   -119939.56 9.7693113e-11 4.0132727e-10 5.3313094e-10    13.102766    13.102766    13.102766    2249.5155 
      39            0   -340.94172   -119773.83   -119773.83   -119773.83   -119773.83 -1.0486191e-10 5.7876207e-10 6.1514193e-10    13.101452    13.101452    13.101452    2248.8389 
      40            0   -340.99226   -119607.73   -119607.73   -119607.73   -119607.73 -1.3908785e-10 -6.0303523e-10 -5.1649269e-10    13.100139    13.100139    13.100139    2248.1623 
      41            0   -341.04272   -119441.26   -119441.26   -119441.26   -119441.26 -2.8458387e-11 -3.8736608e-10 -1.6542272e-10    13.098825    13.098825    13.098825    2247.4859 
      42            0   -341.09311    -119274.4    -119274.4    -119274.4    -119274.4 -1.5715381e-11 3.2868552e-10 3.5432695e-10    13.097511    13.097511    13.097511    2246.8096 
      43            0   -341.14341   -119107.17   -119107.17   -119107.17   -119107.17 2.3854324e-10 -6.0836445e-10 -7.9347609e-10    13.096197    13.096197    13.096197    2246.1335 
      44            0   -341.19362   -118939.56   -118939.56   -118939.56   -118939.56 -2.3928731e-10 -2.7911376e-10 -1.0471057e-11    13.094883    13.094883    13.094883    2245.4575 
      45            0   -341.24376   -118771.58   -118771.58   -118771.58   -118771.58 -2.9443424e-10 9.7872609e-11 9.6496011e-12    13.093569    13.093569    13.093569    2244.7816 
      46            0   -341.29382   -118603.22   -118603.22   -118603.22   -118603.22 -2.4628362e-11 -1.0267304e-09 -9.2127488e-10    13.092255    13.092255    13.092255    2244.1059 
      47            0    -341.3438   -118434.47   -118434.47   -118434.47   -118434.47 -3.1993269e-10 -9.3454551e-10 -1.0220003e-09    13.090941    13.090941    13.090941    2243.4303 
      48            0   -341.39369   -118265.35   -118265.35   -118265.35   -118265.35 1.6529172e-10 5.172091e-10 4.359295e-10    13.089627    13.089627    13.089627    2242.7548 
      49            0   -341.44351   -118095.86   -118095.86   -118095.86   -118095.86 9.4228864e-11 -9.3312001e-11 -7.6700124e-11    13.088313    13.088313    13.088313    2242.0795 
      50            0   -341.49324   -117925.98   -117925.98   -117925.98   -117925.98 5.1451602e-11 1.9940891e-10 3.5377667e-10    13.086999    13.086999    13.086999    2241.4043 
      51            0   -341.54289   -117755.72   -117755.72   -117755.72   -117755.72 6.2135932e-11 1.4567109e-09 1.3535465e-09    13.085685    13.085685    13.085685    2240.7293 
      52            0   -341.59246   -117585.09   -117585.09   -117585.09   -117585.09 9.0386448e-11 1.1537387e-09 9.8856377e-10    13.084371    13.084371    13.084371    2240.0543 
      53            0   -341.64194   -117414.07   -117414.07   -117414.07   -117414.07 3.2081468e-10 1.6602656e-09 1.8355865e-09    13.083057    13.083057    13.083057    2239.3796 
      54            0   -341.69135   -117242.68   -117242.68   -117242.68   -117242.68 4.7847149e-10 4.4609185e-10 5.8379405e-10    13.081743    13.081743    13.081743    2238.7049 
      55            0   -341.74067   -117070.91   -117070.91   -117070.91   -117070.91 2.7810414e-10 1.0582125e-09 9.3436839e-10    13.080429    13.080429    13.080429    2238.0304 
      56            0   -341.78991   -116898.75   -116898.75   -116898.75   -116898.75 -7.1896963e-11 6.5954797e-11 1.0416144e-10    13.079115    13.079115    13.079115     2237.356 
      57            0   -341.83907   -116726.22   -116726.22   -116726.22   -116726.22 3.3055503e-10 4.5100912e-10 5.2803258e-10    13.077801    13.077801    13.077801    2236.6818 
      58            0   -341.88815    -116553.3    -116553.3    -116553.3    -116553.3 9.1590647e-11 3.0652831e-10 3.2983871e-10    13.076487    13.076487    13.076487    2236.0077 
      59            0   -341.93714   -116380.01   -116380.01   -116380.01   -116380.01 2.8202133e-10 1.5899772e-10 2.0690951e-10    13.075173    13.075173    13.075173    2235.3337 
      60            0   -341.98605   -116206.33   -116206.33   -116206.33   -116206.33 1.7280518e-10 6.4986054e-10 6.599768e-10    13.073859    13.073859    13.073859    2234.6599 
      61            0   -342.03488   -116032.27   -116032.27   -116032.27   -116032.27 -2.3213915e-10 4.2736046e-11 7.8890306e-11    13.072545    13.072545    13.072545    2233.9862 
      62            0   -342.08362   -115857.83   -115857.83   -115857.83   -115857.83 3.6714276e-10 4.4365627e-10 3.1898833e-10    13.071232    13.071232    13.071232    2233.3126 
      63            0   -342.13228   -115683.01   -115683.01   -115683.01   -115683.01 2.6238329e-10 -2.5992611e-10 8.599154e-11    13.069918    13.069918    13.069918    2232.6392 
      64            0   -342.18086   -115507.81   -115507.81   -115507.81   -115507.81 2.5099054e-10 -6.517094e-10 -8.0253848e-10    13.068604    13.068604    13.068604    2231.9659 
      65            0   -342.22935   -115332.23   -115332.23   -115332.23   -115332.23 -8.0344514e-11 6.7033596e-10 6.4853956e-10     13.06729     13.06729     13.06729    2231.2927 
      66            0   -342.27776   -115156.26   -115156.26   -115156.26   -115156.26 3.5901357e-11 5.1793638e-10 7.2861112e-10    13.065976    13.065976    13.065976    2230.6197 
      67            0   -342.32609   -114979.91   -114979.91   -114979.91   -114979.91 -2.1053647e-10 8.4512765e-10 4.5308027e-10    13.064662    13.064662    13.064662    2229.9468 
      68            0   -342.37433   -114803.18   -114803.18   -114803.18   -114803.18 -3.3768521e-10 -1.2179579e-11 1.0787404e-10    13.063348    13.063348    13.063348    2229.2741 
      69            0   -342.42249   -114626.07   -114626.07   -114626.07   -114626.07 -3.1278606e-10 9.587434e-10 8.9797218e-10    13.062034    13.062034    13.062034    2228.6015 
      70            0   -342.47057   -114448.57   -114448.57   -114448.57   -114448.57 -2.0473151e-10 -4.7890447e-10 -6.1839639e-10     13.06072     13.06072     13.06072     2227.929 
      71            0   -342.51856   -114270.69   -114270.69   -114270.69   -114270.69 1.2861952e-10 5.8374332e-10 5.0749423e-10    13.059406    13.059406    13.059406    2227.2566 
      72            0   -342.56646   -114092.42   -114092.42   -114092.42   -114092.42 -1.1220426e-11 6.7089399e-10 5.3721519e-10    13.058092    13.058092    13.058092    2226.5844 
      73            0   -342.61428   -113913.78   -113913.78   -113913.78   -113913.78 1.3529533e-10 9.567679e-11 -4.3895618e-11    13.056778    13.056778    13.056778    2225.9123 
      74            0   -342.66202   -113734.74   -113734.74   -113734.74   -113734.74 4.6798764e-10 1.3246568e-09 1.6684376e-09    13.055464    13.055464    13.055464    2225.2404 
      75            0   -342.70967   -113555.33   -113555.33   -113555.33   -113555.33 -2.5991835e-10 8.3917126e-11 6.5520932e-11     13.05415     13.05415     13.05415    2224.5686 
      76            0   -342.75724   -113375.53   -113375.53   -113375.53   -113375.53 -6.1860716e-10 4.7501888e-11 2.7680468e-12    13.052836    13.052836    13.052836    2223.8969 
      77            0   -342.80472   -113195.35   -113195.35   -113195.35   -113195.35 -6.9293284e-11 -2.3666988e-10 -4.7254452e-10    13.051522    13.051522    13.051522    2223.2254 
      78            0   -342.85212   -113014.78   -113014.78   -113014.78   -113014.78 -1.5334825e-10 -2.9362212e-10 -1.4592057e-10    13.050208    13.050208    13.050208     2222.554 
      79            0   -342.89943   -112833.82   -112833.82   -112833.82   -112833.82 4.3785489e-12 -4.8956698e-11 2.9476627e-10    13.048894    13.048894    13.048894    2221.8827 
      80            0   -342.94666   -112652.49   -112652.49   -112652.49   -112652.49 -9.0664729e-11 -1.335468e-09 -1.222912e-09     13.04758     13.04758     13.04758    2221.2116 
      81            0    -342.9938   -112470.76   -112470.76   -112470.76   -112470.76 1.662634e-10 -6.8748317e-10 -5.7458773e-10    13.046266    13.046266    13.046266    2220.5406 
      82            0   -343.04085   -112288.65   -112288.65   -112288.65   -112288.65 1.8444734e-10 -2.4293722e-10 -6.3638432e-11    13.044952    13.044952    13.044952    2219.8698 
      83            0   -343.08782   -112106.16   -112106.16   -112106.16   -112106.16 -3.5428237e-10 -2.5020794e-10 -2.9342851e-12    13.043638    13.043638    13.043638     2219.199 
      84            0   -343.13471   -111923.28   -111923.28   -111923.28   -111923.28 5.9637888e-12 -5.3887997e-10 -3.9562807e-10    13.042324    13.042324    13.042324    2218.5284 
      85            0    -343.1815   -111740.02   -111740.02   -111740.02   -111740.02 2.749934e-10 5.4226287e-10 -2.6020593e-11    13.041011    13.041011    13.041011     2217.858 
      86            0   -343.22822   -111556.37   -111556.37   -111556.37   -111556.37 3.699744e-11 -2.7574723e-10 -1.9315932e-10    13.039697    13.039697    13.039697    2217.1877 
      87            0   -343.27484   -111372.33   -111372.33   -111372.33   -111372.33 -3.6311075e-10 7.1992468e-10 6.9662812e-10    13.038383    13.038383    13.038383    2216.5175 
      88            0   -343.32138    -111187.9    -111187.9    -111187.9    -111187.9 2.1436108e-10 2.7973064e-11 2.0996638e-10    13.037069    13.037069    13.037069    2215.8474 
      89            0   -343.36783   -111003.09   -111003.09   -111003.09   -111003.09 7.4823541e-11 4.6934577e-10 6.0647416e-10    13.035755    13.035755    13.035755    2215.1775 
      90            0    -343.4142    -110817.9    -110817.9    -110817.9    -110817.9 -2.1382517e-10 2.2852012e-10 2.6204614e-10    13.034441    13.034441    13.034441    2214.5078 
      91            0   -343.46048   -110632.31   -110632.31   -110632.31   -110632.31 2.6098822e-10 5.4542074e-11 2.8429825e-10    13.033127    13.033127    13.033127    2213.8381 
      92            0   -343.50667   -110446.34   -110446.34   -110446.34   -110446.34 -2.7806457e-10 -6.0205828e-10 -7.2185122e-10    13.031813    13.031813    13.031813    2213.1686 
      93            0   -343.55277   -110259.98   -110259.98   -110259.98   -110259.98 -2.6289727e-10 -1.1810267e-10 -2.1621757e-10    13.030499    13.030499    13.030499    2212.4992 
      94            0   -343.59879   -110073.24   -110073.24   -110073.24   -110073.24 2.1633182e-10 2.8470297e-10 2.1768348e-10    13.029185    13.029185    13.029185      2211.83 
      95            0   -343.64472   -109886.11   -109886.11   -109886.11   -109886.11 -1.7122302e-10 -2.0663474e-10 -1.0515656e-10    13.027871    13.027871    13.027871    2211.1609 
      96            0   -343.69056   -109698.58   -109698.58   -109698.58   -109698.58 -3.0540174e-10 3.9037136e-10 2.6181337e-10    13.026557    13.026557    13.026557    2210.4919 
      97            0   -343.73632   -109510.68   -109510.68   -109510.68   -109510.68 2.4837681e-10 -8.4902396e-11 -1.3007206e-10    13.025243    13.025243    13.025243    2209.8231 
      98            0   -343.78198   -109322.38   -109322.38   -109322.38   -109322.38 1.904842e-10 -3.0136774e-10 -2.7020717e-10    13.023929    13.023929    13.023929    2209.1544 
      99            0   -343.82756   -109133.69   -109133.69   -109133.69   -109133.69 4.0058909e-10 4.5100611e-10 6.5372601e-10    13.022615    13.022615    13.022615    2208.4858 
### NNP EW SUMMARY ### TS:        100 EW          0 EWPERSTEP  0.000E+00
     100            0   -343.87305   -108944.62   -108944.62   -108944.62   -108944.62 8.6059627e-11 5.8627741e-10 5.482655e-10    13.021301    13.021301    13.021301    2207.8174 
     101            0   -343.91846   -108755.16   -108755.16   -108755.16   -108755.16 -2.3206409e-10 -1.3438384e-09 -1.2816095e-09    13.019987    13.019987    13.019987    2207.1491 
     102            0   -343.96377    -108565.3    -108565.3    -108565.3    -108565.3 -5.0167252e-10 -2.1833741e-10 -4.4443493e-10    13.018673    13.018673    13.018673     2206.481 
     103            0     -344.009   -108375.06   -108375.06   -108375.06   -108375.06 4.3069588e-10 -2.7107329e-10 -3.3767585e-10    13.017359    13.017359    13.017359    2205.8129 
     104            0   -344.05413   -108184.43   -108184.43   -108184.43   -108184.43 -1.9490037e-10 -5.542733e-10 -4.2034693e-10    13.016045    13.016045    13.016045     2205.145 
     105            0   -344.09918   -107993.41   -107993.41   -107993.41   -107993.41 -7.3267279e-11 5.3279034e-10 6.0748766e-10    13.014731    13.014731    13.014731    2204.4773 
     106            0   -344.14414      -107802      -107802      -107802      -107802 5.2859769e-10 9.0966024e-11 9.5847933e-11    13.013417    13.013417    13.013417    2203.8097 
     107            0   -344.18902    -107610.2    -107610.2    -107610.2    -107610.2 -3.4692453e-10 -5.3452274e-11 7.8331087e-11    13.012103    13.012103    13.012103    2203.1422 
     108            0    -344.2338   -107418.01   -107418.01   -107418.01   -107418.01 2.5929266e-10 -6.6856701e-10 -1.0655067e-09     13.01079     13.01079     13.01079    2202.4748 
     109            0   -344.27849   -107225.43   -107225.43   -107225.43   -107225.43 1.643907e-10 -6.2011713e-10 -3.524362e-10    13.009476    13.009476    13.009476    2201.8076 
     110            0    -344.3231   -107032.46   -107032.46   -107032.46   -107032.46 -4.1061945e-10 5.5558721e-10 4.3693645e-10    13.008162    13.008162    13.008162    2201.1405 
     111            0   -344.36761    -106839.1    -106839.1    -106839.1    -106839.1 -1.2984887e-10 4.2824567e-10 3.2128332e-10    13.006848    13.006848    13.006848    2200.4736 
     112            0   -344.41204   -106645.35   -106645.35   -106645.35   -106645.35 3.4640253e-10 -7.0385398e-11 3.9376003e-11    13.005534    13.005534    13.005534    2199.8068 
     113            0   -344.45637   -106451.21   -106451.21   -106451.21   -106451.21 -1.3235082e-10 -3.5804053e-10 -4.8547823e-10     13.00422     13.00422     13.00422    2199.1401 
     114            0   -344.50062   -106256.68   -106256.68   -106256.68   -106256.68 2.0978457e-10 1.1030774e-10 2.5209052e-10    13.002906    13.002906    13.002906    2198.4736 
     115            0   -344.54477   -106061.75   -106061.75   -106061.75   -106061.75 -2.1278326e-10 3.7262156e-10 4.3188737e-10    13.001592    13.001592    13.001592    2197.8072 
     116            0   -344.58884   -105866.43   -105866.43   -105866.43   -105866.43 -2.0717058e-10 2.1005439e-10 4.4097219e-10    13.000278    13.000278    13.000278    2197.1409 
     117            0   -344.63281   -105670.72   -105670.72   -105670.72   -105670.72 -1.2030863e-10 -3.4652306e-10 -4.3210575e-10    12.998964    12.998964    12.998964    2196.4748 
     118            0    -344.6767   -105474.62   -105474.62   -105474.62   -105474.62 -3.0255817e-10 8.0120772e-10 6.0558784e-10     12.99765     12.99765     12.99765    2195.8088 
     119            0   -344.72049   -105278.13   -105278.13   -105278.13   -105278.13 -9.7894616e-11 4.1995779e-10 6.2207084e-10    12.996336    12.996336    12.996336    2195.1429 
     120            0    -344.7642   -105081.24   -105081.24   -105081.24   -105081.24 -1.8020077e-10 7.7637566e-10 7.7588584e-10    12.995022    12.995022    12.995022    2194.4772 
     121            0   -344.80781   -104883.96   -104883.96   -104883.96   -104883.96 -3.1196192e-10 2.6726856e-11 -1.0752843e-10    12.993708    12.993708    12.993708    2193.8116 
     122            0   -344.85133   -104686.29   -104686.29   -104686.29   -104686.29 3.083041e-10 -4.10256e-10 -3.1238513e-10    12.992394    12.992394    12.992394    2193.1461 
     123            0   -344.89476   -104488.23   -104488.23   -104488.23   -104488.23 -2.2051153e-10 1.6310058e-09 1.4211209e-09     12.99108     12.99108     12.99108    2192.4808 
     124            0    -344.9381   -104289.77   -104289.77   -104289.77   -104289.77 2.9821756e-10 -9.243152e-11 -1.6142013e-10    12.989766    12.989766    12.989766    2191.8156 
     125            0   -344.98135   -104090.92   -104090.92   -104090.92   -104090.92 -2.1054268e-10 -4.2121519e-10 -4.6790471e-10    12.988452    12.988452    12.988452    2191.1505 
     126            0   -345.02451   -103891.67   -103891.67   -103891.67   -103891.67 -3.0246384e-10 -5.5440317e-10 -5.704547e-10    12.987138    12.987138    12.987138    2190.4856 
     127            0   -345.06758   -103692.03   -103692.03   -103692.03   -103692.03 -2.9560677e-10 6.1703654e-10 6.2778481e-10    12.985824    12.985824    12.985824    2189.8208 
     128            0   -345.11055   -103491.99   -103491.99   -103491.99   -103491.99 -3.0571111e-10 -1.9647878e-09 -1.9205292e-09     12.98451     12.98451     12.98451    2189.1561 
     129            0   -345.15344   -103291.57   -103291.57   -103291.57   -103291.57 4.7042097e-13 -1.4053015e-10 -3.107575e-10    12.983196    12.983196    12.983196    2188.4916 
     130            0   -345.19623   -103090.74   -103090.74   -103090.74   -103090.74 -3.5855755e-10 -8.5481783e-10 -8.9792345e-10    12.981883    12.981883    12.981883    2187.8272 
     131            0   -345.23893   -102889.52   -102889.52   -102889.52   -102889.52 1.7442617e-10 1.1742823e-09 1.0303145e-09    12.980569    12.980569    12.980569     2187.163 
     132            0   -345.28153   -102687.91   -102687.91   -102687.91   -102687.91 -4.3307734e-10 -1.3297849e-09 -1.5647842e-09    12.979255    12.979255    12.979255    2186.4989 
     133            0   -345.32405    -102485.9    -102485.9    -102485.9    -102485.9 6.2456581e-10 1.0611527e-09 1.5178262e-09    12.977941    12.977941    12.977941    2185.8349 
     134            0   -345.36647   -102283.49   -102283.49   -102283.49   -102283.49 8.4408676e-11 -7.5876817e-10 -3.6734849e-10    12.976627    12.976627    12.976627     2185.171 
     135            0    -345.4088   -102080.69   -102080.69   -102080.69   -102080.69 9.1542338e-11 -2.7220422e-10 -5.6030843e-11    12.975313    12.975313    12.975313    2184.5073 
     136            0   -345.45104   -101877.49   -101877.49   -101877.49   -101877.49 -3.4242482e-10 -2.3187893e-10 -4.5300955e-10    12.973999    12.973999    12.973999    2183.8437 
     137            0   -345.49318   -101673.89   -101673.89   -101673.89   -101673.89 -2.3206415e-10 1.3373933e-11 4.1187412e-12    12.972685    12.972685    12.972685    2183.1803 
     138            0   -345.53523    -101469.9    -101469.9    -101469.9    -101469.9 -1.2178495e-10 -3.2112757e-10 -2.6588899e-10    12.971371    12.971371    12.971371     2182.517 
     139            0   -345.57719   -101265.51   -101265.51   -101265.51   -101265.51 5.3122757e-11 -3.4458594e-10 -1.3572823e-11    12.970057    12.970057    12.970057    2181.8538 
     140            0   -345.61906   -101060.72   -101060.72   -101060.72   -101060.72 1.4617992e-10 2.2996557e-10 7.0483479e-10    12.968743    12.968743    12.968743    2181.1908 
     141            0   -345.66083   -100855.53   -100855.53   -100855.53   -100855.53 -1.2486181e-10 -1.5890955e-10 -3.7535668e-10    12.967429    12.967429    12.967429    2180.5278 
     142            0   -345.70251   -100649.95   -100649.95   -100649.95   -100649.95 1.2572378e-10 -7.3331203e-10 -6.6690161e-10    12.966115    12.966115    12.966115    2179.8651 
     143            0   -345.74409   -100443.97   -100443.97   -100443.97   -100443.97 -1.2660128e-10 -2.7489127e-10 -3.9636006e-10    12.964801    12.964801    12.964801    2179.2024 
     144            0   -345.78558   -100237.59   -100237.59   -100237.59   -100237.59 -3.8414598e-10 -4.4179538e-10 -5.053339e-10    12.963487    12.963487    12.963487    2178.5399 
     145            0   -345.82698   -100030.81   -100030.81   -100030.81   -100030.81 -4.7497557e-10 -1.7137668e-09 -1.6829187e-09    12.962173    12.962173    12.962173    2177.8776 
     146            0   -345.86828   -99823.626   -99823.626   -99823.626   -99823.626 -2.1630822e-10 -5.2063087e-10 -5.769234e-10    12.960859    12.960859    12.960859    2177.2153 
     147            0   -345.90949   -99616.046   -99616.046   -99616.046   -99616.046 3.405916e-10 6.702531e-10 5.5226937e-10    12.959545    12.959545    12.959545    2176.5532 
     148            0   -345.95061   -99408.066   -99408.066   -99408.066   -99408.066 6.1368678e-11 -6.3930809e-10 -7.5137983e-10    12.958231    12.958231    12.958231    2175.8912 
     149            0   -345.99163   -99199.685   -99199.685   -99199.685   -99199.685 1.8096118e-10 -8.7982132e-11 -1.0948519e-10    12.956917    12.956917    12.956917    2175.2294 
     150            0   -346.03256   -98990.904   -98990.904   -98990.904   -98990.904 -1.6672179e-10 -5.3832469e-11 -1.8352628e-10    12.955603    12.955603    12.955603    2174.5677 
     151            0   -346.07339   -98781.722   -98781.722   -98781.722   -98781.722 -3.5375224e-10 -1.1841183e-10 2.1779237e-11    12.954289    12.954289    12.954289    2173.9061 
     152            0   -346.11412   -98572.138   -98572.138   -98572.138   -98572.138 1.1441357e-10 -1.2640255e-10 -3.6518317e-12    12.952975    12.952975    12.952975    2173.2447 
     153            0   -346.15477   -98362.152   -98362.152   -98362.152   -98362.152 -4.0755042e-10 -2.6916868e-11 -6.5463044e-11    12.951662    12.951662    12.951662    2172.5834 
     154            0   -346.19531   -98151.764   -98151.764   -98151.764   -98151.764 -3.3472596e-10 -3.140146e-10 -3.4639397e-10    12.950348    12.950348    12.950348    2171.9222 
     155            0   -346.23577   -97940.973   -97940.973   -97940.973   -97940.973 1.6015125e-11 -6.4312359e-10 -7.6569715e-10    12.949034    12.949034    12.949034    2171.2612 
     156            0   -346.27612    -97729.78    -97729.78    -97729.78    -97729.78 6.9343375e-11 1.2621394e-09 1.3615188e-09     12.94772     12.94772     12.94772    2170.6003 
     157            0   -346.31639   -97518.183   -97518.183   -97518.183   -97518.183 -6.2267004e-11 -1.0236917e-09 -1.0984162e-09    12.946406    12.946406    12.946406    2169.9396 
     158            0   -346.35655   -97306.182   -97306.182   -97306.182   -97306.182 -3.8320213e-11 8.5359626e-10 6.8459923e-10    12.945092    12.945092    12.945092    2169.2789 
     159            0   -346.39662   -97093.777   -97093.777   -97093.777   -97093.777 3.6119925e-10 -1.1884147e-09 -1.0503108e-09    12.943778    12.943778    12.943778    2168.6184 
     160            0    -346.4366   -96880.968   -96880.968   -96880.968   -96880.968 -3.0226633e-11 3.543946e-10 4.2868006e-10    12.942464    12.942464    12.942464    2167.9581 
     161            0   -346.47648   -96667.753   -96667.753   -96667.753   -96667.753 -2.2790315e-10 6.1004387e-10 3.6811546e-10     12.94115     12.94115     12.94115    2167.2979 
     162            0   -346.51626   -96454.133   -96454.133   -96454.133   -96454.133 -6.5431316e-10 -6.4988247e-10 -7.9394193e-10    12.939836    12.939836    12.939836    2166.6378 
     163            0   -346.55594   -96240.108   -96240.108   -96240.108   -96240.108 -2.8377567e-10 2.586229e-10 2.4541162e-10    12.938522    12.938522    12.938522    2165.9778 
     164            0   -346.59553   -96025.676   -96025.676   -96025.676   -96025.676 -1.2814995e-10 4.6584788e-10 -4.9035263e-11    12.937208    12.937208    12.937208     2165.318 
     165            0   -346.63503   -95810.837   -95810.837   -95810.837   -95810.837 5.1758665e-10 1.9033209e-09 2.0626949e-09    12.935894    12.935894    12.935894    2164.6583 
     166            0   -346.67443   -95595.592   -95595.592   -95595.592   -95595.592 3.6383366e-10 1.5169604e-10 1.7971254e-10     12.93458     12.93458     12.93458    2163.9987 
     167            0   -346.71373   -95379.938   -95379.938   -95379.938   -95379.938 1.996004e-10 -3.0209592e-10 1.2942712e-10    12.933266    12.933266    12.933266    2163.3393 
     168            0   -346.75293   -95163.877   -95163.877   -95163.877   -95163.877 6.8637694e-10 1.2085398e-09 1.5304382e-09    12.931952    12.931952    12.931952      2162.68 
     169            0   -346.79204   -94947.407   -94947.407   -94947.407   -94947.407 -1.4867159e-10 -1.0344258e-09 -7.0173562e-10    12.930638    12.930638    12.930638    2162.0209 
     170            0   -346.83105   -94730.529   -94730.529   -94730.529   -94730.529 -4.9051483e-12 5.8408224e-10 6.3784484e-10    12.929324    12.929324    12.929324    2161.3619 
     171            0   -346.86996   -94513.241   -94513.241   -94513.241   -94513.241 -2.0537881e-10 -1.6243111e-09 -1.5100327e-09     12.92801     12.92801     12.92801     2160.703 
     172            0   -346.90878   -94295.542   -94295.542   -94295.542   -94295.542 -1.602599e-10 2.5746233e-11 8.5122382e-11    12.926696    12.926696    12.926696    2160.0442 
     173            0   -346.94749   -94077.434   -94077.434   -94077.434   -94077.434 1.1126148e-10 -2.6328825e-11 1.3300993e-10    12.925382    12.925382    12.925382    2159.3856 
     174            0   -346.98611   -93858.914   -93858.914   -93858.914   -93858.914 1.0605623e-10 -4.6581464e-10 -2.7534348e-10    12.924068    12.924068    12.924068    2158.7271 
     175            0   -347.02464   -93639.983   -93639.983   -93639.983   -93639.983 -8.2673333e-11 6.3597368e-10 7.9514854e-10    12.922755    12.922755    12.922755    2158.0688 
     176            0   -347.06306   -93420.641   -93420.641   -93420.641   -93420.641 1.5297096e-10 5.0985616e-10 9.2157943e-10    12.921441    12.921441    12.921441    2157.4106 
     177            0   -347.10139   -93200.885   -93200.885   -93200.885   -93200.885 -1.6661793e-10 -4.3780502e-10 -5.2855866e-10    12.920127    12.920127    12.920127    2156.7525 
     178            0   -347.13962   -92980.717   -92980.717   -92980.717   -92980.717 6.1038409e-10 -1.079356e-09 -1.1835786e-09    12.918813    12.918813    12.918813    2156.0945 
     179            0   -347.17775   -92760.134   -92760.134   -92760.134   -92760.134 -4.1056561e-11 2.0793606e-09 2.1567194e-09    12.917499    12.917499    12.917499    2155.4367 
     180            0   -347.21578   -92539.138   -92539.138   -92539.138   -92539.138 -3.7350327e-10 -1.3838317e-09 -1.2381365e-09    12.916185    12.916185    12.916185     2154.779 
     181            0   -347.25371   -92317.727   -92317.727   -92317.727   -92317.727 3.3731862e-10 1.1438234e-09 1.1093462e-09    12.914871    12.914871    12.914871    2154.1215 
     182            0   -347.29155   -92095.901   -92095.901   -92095.901   -92095.901 1.0569445e-10 3.806641e-10 6.3929095e-10    12.913557    12.913557    12.913557    2153.4641 
     183            0   -347.32928   -91873.659   -91873.659   -91873.659   -91873.659 1.9474703e-10 -1.9103701e-09 -1.4705047e-09    12.912243    12.912243    12.912243    2152.8068 
     184            0   -347.36692       -91651       -91651       -91651       -91651 -3.7892159e-10 -1.6803026e-09 -1.6331799e-09    12.910929    12.910929    12.910929    2152.1497 
     185            0   -347.40446   -91427.925   -91427.925   -91427.925   -91427.925 -6.9032585e-10 -5.064917e-10 -2.1579493e-10    12.909615    12.909615    12.909615    2151.4926 
     186            0    -347.4419   -91204.431   -91204.431   -91204.431   -91204.431 -3.756564e-10 7.1840889e-12 4.035733e-10    12.908301    12.908301    12.908301    2150.8358 
     187            0   -347.47924    -90980.52    -90980.52    -90980.52    -90980.52 1.1375848e-10 -4.0286938e-10 -3.4803964e-10    12.906987    12.906987    12.906987     2150.179 
     188            0   -347.51648   -90756.189   -90756.189   -90756.189   -90756.189 -4.3323891e-10 -1.7888492e-09 -1.7712699e-09    12.905673    12.905673    12.905673    2149.5224 
     189            0   -347.55362   -90531.439   -90531.439   -90531.439   -90531.439 -3.2354035e-11 5.1066996e-10 5.2826499e-10    12.904359    12.904359    12.904359    2148.8659 
     190            0   -347.59066   -90306.269   -90306.269   -90306.269   -90306.269 1.5728199e-10 -1.289928e-10 -5.5315637e-11    12.903045    12.903045    12.903045    2148.2096 
     191            0    -347.6276   -90080.678   -90080.678   -90080.678   -90080.678 5.0798481e-11 -1.6026969e-09 -1.4056063e-09    12.901731    12.901731    12.901731    2147.5534 
     192            0   -347.66444   -89854.666   -89854.666   -89854.666   -89854.666 2.6208382e-10 -1.9599213e-10 -4.9189814e-10    12.900417    12.900417    12.900417    2146.8973 
     193            0   -347.70118   -89628.231   -89628.231   -89628.231   -89628.231 -1.1978503e-10 -8.6969805e-10 -7.5237961e-10    12.899103    12.899103    12.899103    2146.2414 
     194            0   -347.73782   -89401.374   -89401.374   -89401.374   -89401.374 -5.3741776e-14 -5.4536253e-10 -5.6268296e-10    12.897789    12.897789    12.897789    2145.5856 
     195            0   -347.77436   -89174.093   -89174.093   -89174.093   -89174.093 -3.186795e-10 5.0755157e-11 2.3052008e-10    12.896475    12.896475    12.896475    2144.9299 
     196            0    -347.8108   -88946.387   -88946.387   -88946.387   -88946.387 -1.5320098e-11 8.0071568e-10 7.6967091e-10    12.895161    12.895161    12.895161    2144.2743 
     197            0   -347.84714   -88718.257   -88718.257   -88718.257   -88718.257 -2.6018595e-11 1.4675328e-09 1.1514471e-09    12.893847    12.893847    12.893847    2143.6189 
     198            0   -347.88338   -88489.701   -88489.701   -88489.701   -88489.701 1.5329218e-10 -8.4055514e-10 -1.4703085e-09    12.892534    12.892534    12.892534    2142.9637 
     199            0   -347.91951   -88260.719   -88260.719   -88260.719   -88260.719 1.5244671e-10 3.0979838e-10 7.915962e-10     12.89122     12.89122     12.89122    2142.3085 
### NNP EW SUMMARY ### TS:        200 EW          0 EWPERSTEP  0.000E+00
     200            0   -347.95555    -88031.31    -88031.31    -88031.31    -88031.31 8.6229346e-11 -1.8439028e-10 1.591851e-10    12.889906    12.889906    12.889906    2141.6535 
     201            0   -347.99149   -87801.472   -87801.472   -87801.472   -87801.472 3.7213186e-10 4.490577e-10 4.3485239e-10    12.888592    12.888592    12.888592    2140.9986 
     202            0   -348.02732   -87571.206   -87571.206   -87571.206   -87571.206 1.160356e-11 1.9751374e-09 2.0325214e-09    12.887278    12.887278    12.887278    2140.3439 
     203            0   -348.06305   -87340.511   -87340.511   -87340.511   -87340.511 3.1560824e-10 1.4086372e-10 6.6207508e-10    12.885964    12.885964    12.885964    2139.6893 
     204            0   -348.09868   -87109.385   -87109.385   -87109.385   -87109.385 -1.0270164e-09 -5.2564278e-10 -4.6253449e-10     12.88465     12.88465     12.88465    2139.0348 
     205            0   -348.13421   -86877.829   -86877.829   -86877.829   -86877.829 -3.2175688e-10 -3.652999e-10 -6.3308741e-10    12.883336    12.883336    12.883336    2138.3805 
     206            0   -348.16964   -86645.841   -86645.841   -86645.841   -86645.841 6.2403457e-10 -3.4611243e-10 -3.6725588e-10    12.882022    12.882022    12.882022    2137.7263 
     207            0   -348.20496    -86413.42    -86413.42    -86413.42    -86413.42 1.3026085e-10 -1.094911e-09 -6.819735e-10    12.880708    12.880708    12.880708    2137.0722 
     208            0   -348.24018   -86180.566   -86180.566   -86180.566   -86180.566 -2.0153258e-10 3.3509599e-10 3.201021e-10    12.879394    12.879394    12.879394    2136.4183 
     209            0    -348.2753   -85947.277   -85947.277   -85947.277   -85947.277 3.3108045e-10 2.6644845e-10 4.3239659e-10     12.87808     12.87808     12.87808    2135.7645 
     210            0   -348.31032   -85713.553   -85713.553   -85713.553   -85713.553 1.3329094e-10 -3.6850308e-10 -4.7982978e-10    12.876766    12.876766    12.876766    2135.1108 
     211            0   -348.34524   -85479.394   -85479.394   -85479.394   -85479.394 8.6782324e-11 -7.3477809e-10 -9.5140309e-10    12.875452    12.875452    12.875452    2134.4573 
     212            0   -348.38005   -85244.797   -85244.797   -85244.797   -85244.797 -4.0679289e-10 -4.3485726e-10 -1.2914191e-10    12.874138    12.874138    12.874138    2133.8039 
     213            0   -348.41476   -85009.763   -85009.763   -85009.763   -85009.763 -4.553378e-10 -6.4425131e-10 -6.2569735e-10    12.872824    12.872824    12.872824    2133.1506 
     214            0   -348.44937   -84774.291   -84774.291   -84774.291   -84774.291 6.7479031e-11 1.3980239e-09 1.383558e-09     12.87151     12.87151     12.87151    2132.4974 
     215            0   -348.48387   -84538.379   -84538.379   -84538.379   -84538.379 -7.6797045e-12 1.9733375e-10 3.6689816e-10    12.870196    12.870196    12.870196    2131.8444 
     216            0   -348.51827   -84302.026   -84302.026   -84302.026   -84302.026 3.3358399e-10 8.1499019e-10 5.9278677e-10    12.868882    12.868882    12.868882    2131.1916 
     217            0   -348.55257   -84065.233   -84065.233   -84065.233   -84065.233 -5.8773561e-10 8.7638838e-12 7.4975198e-12    12.867568    12.867568    12.867568    2130.5388 
     218            0   -348.58676   -83827.997   -83827.997   -83827.997   -83827.997 -5.4348436e-10 4.3224764e-10 2.7710754e-10    12.866254    12.866254    12.866254    2129.8862 
     219            0   -348.62085   -83590.318   -83590.318   -83590.318   -83590.318 -4.192903e-10 -3.0630883e-10 -1.3918175e-10     12.86494     12.86494     12.86494    2129.2337 
     220            0   -348.65484   -83352.195   -83352.195   -83352.195   -83352.195 -1.7456095e-10 2.7963927e-10 -1.0258113e-10    12.863626    12.863626    12.863626    2128.5814 
     221            0   -348.68872   -83113.627   -83113.627   -83113.627   -83113.627 -4.7117719e-10 5.0575015e-10 2.0670818e-10    12.862313    12.862313    12.862313    2127.9292 
     222            0    -348.7225   -82874.612   -82874.612   -82874.612   -82874.612 -7.1649735e-10 3.0348152e-10 3.5368945e-11    12.860999    12.860999    12.860999    2127.2771 
     223            0   -348.75617   -82635.151   -82635.151   -82635.151   -82635.151 -2.2337095e-10 2.5236588e-10 3.2337394e-11    12.859685    12.859685    12.859685    2126.6252 
     224            0   -348.78974   -82395.242   -82395.242   -82395.242   -82395.242 -3.741211e-10 4.1793019e-12 2.7054858e-10    12.858371    12.858371    12.858371    2125.9734 
     225            0   -348.82321   -82154.884   -82154.884   -82154.884   -82154.884 9.4051628e-11 -7.2771343e-10 -8.8620788e-10    12.857057    12.857057    12.857057    2125.3217 
     226            0   -348.85657   -81914.076   -81914.076   -81914.076   -81914.076 1.9107275e-10 5.5544568e-10 4.8968692e-10    12.855743    12.855743    12.855743    2124.6702 
     227            0   -348.88982   -81672.817   -81672.817   -81672.817   -81672.817 3.4013641e-12 4.6067553e-10 2.3463753e-10    12.854429    12.854429    12.854429    2124.0188 
     228            0   -348.92297   -81431.106   -81431.106   -81431.106   -81431.106 -3.2896434e-10 4.2541671e-10 3.0368715e-10    12.853115    12.853115    12.853115    2123.3675 
     229            0   -348.95602   -81188.941   -81188.941   -81188.941   -81188.941 -2.225021e-10 -3.8844491e-11 -7.2488999e-11    12.851801    12.851801    12.851801    2122.7164 
     230            0   -348.98896   -80946.323   -80946.323   -80946.323   -80946.323 -3.9037179e-10 -8.2657384e-10 -5.0039862e-10    12.850487    12.850487    12.850487    2122.0653 
     231            0   -349.02179   -80703.249   -80703.249   -80703.249   -80703.249 1.2166297e-10 2.5949122e-09 2.8777342e-09    12.849173    12.849173    12.849173    2121.4145 
     232            0   -349.05452   -80459.719   -80459.719   -80459.719   -80459.719 1.344757e-10 -9.8721618e-10 -9.468211e-10    12.847859    12.847859    12.847859    2120.7637 
     233            0   -349.08714   -80215.732   -80215.732   -80215.732   -80215.732 -6.5450402e-10 -6.1489164e-10 -7.5141615e-10    12.846545    12.846545    12.846545    2120.1131 
     234            0   -349.11966   -79971.286   -79971.286   -79971.286   -79971.286 1.5891262e-10 -4.8604308e-10 -2.4828591e-10    12.845231    12.845231    12.845231    2119.4627 
     235            0   -349.15207    -79726.38    -79726.38    -79726.38    -79726.38 -1.1765002e-10 -1.3603732e-09 -1.2897339e-09    12.843917    12.843917    12.843917    2118.8123 
     236            0   -349.18438   -79481.014   -79481.014   -79481.014   -79481.014 -3.604641e-11 1.8447353e-10 2.0662219e-10    12.842603    12.842603    12.842603    2118.1621 
     237            0   -349.21658   -79235.186   -79235.186   -79235.186   -79235.186 -9.9931262e-11 4.1003932e-10 5.7252885e-11    12.841289    12.841289    12.841289     2117.512 
     238            0   -349.24867   -78988.894   -78988.894   -78988.894   -78988.894 -9.0456346e-11 1.5251623e-09 1.5181217e-09    12.839975    12.839975    12.839975    2116.8621 
     239            0   -349.28066   -78742.139   -78742.139   -78742.139   -78742.139 -2.1418934e-10 1.9020055e-10 2.5269715e-11    12.838661    12.838661    12.838661    2116.2123 
     240            0   -349.31254   -78494.918   -78494.918   -78494.918   -78494.918 2.1793329e-10 -3.2913425e-10 -1.2040682e-10    12.837347    12.837347    12.837347    2115.5626 
     241            0   -349.34431   -78247.231   -78247.231   -78247.231   -78247.231 -2.1899236e-10 4.5128194e-10 3.630905e-10    12.836033    12.836033    12.836033    2114.9131 
     242            0   -349.37597   -77999.076   -77999.076   -77999.076   -77999.076 6.5911611e-11 1.0268909e-09 8.7414757e-10    12.834719    12.834719    12.834719    2114.2636 
     243            0   -349.40753   -77750.452   -77750.452   -77750.452   -77750.452 1.6553368e-10 -5.4787708e-10 -8.383689e-11    12.833406    12.833406    12.833406    2113.6144 
     244            0   -349.43898   -77501.358   -77501.358   -77501.358   -77501.358 4.0872732e-11 -4.6739111e-10 -5.3749546e-10    12.832092    12.832092    12.832092    2112.9652 
     245            0   -349.47033   -77251.793   -77251.793   -77251.793   -77251.793 -4.2679811e-11 1.2296804e-09 1.3666345e-09    12.830778    12.830778    12.830778    2112.3162 
     246            0   -349.50156   -77001.755   -77001.755   -77001.755   -77001.755 2.0768094e-10 -4.5948074e-10 -3.4427555e-10    12.829464    12.829464    12.829464    2111.6673 
     247            0   -349.53269   -76751.243   -76751.243   -76751.243   -76751.243 -5.5151657e-11 1.144746e-10 1.2332962e-10     12.82815     12.82815     12.82815    2111.0186 
     248            0   -349.56371   -76500.256   -76500.256   -76500.256   -76500.256 -5.1105086e-10 -1.0431959e-09 -9.294453e-10    12.826836    12.826836    12.826836      2110.37 
     249            0   -349.59463   -76248.793   -76248.793   -76248.793   -76248.793 9.7063772e-11 2.1365161e-09 1.8530952e-09    12.825522    12.825522    12.825522    2109.7215 
     250            0   -349.62543   -75996.852   -75996.852   -75996.852   -75996.852 -4.2532755e-11 4.1177205e-10 3.6884756e-10    12.824208    12.824208    12.824208    2109.0731 
     251            0   -349.65613   -75744.433   -75744.433   -75744.433   -75744.433 1.0575323e-10 -4.2963908e-11 -2.6760309e-10    12.822894    12.822894    12.822894    2108.4249 
     252            0   -349.68671   -75491.533   -75491.533   -75491.533   -75491.533 4.1269778e-12 -2.0652683e-09 -1.9170844e-09     12.82158     12.82158     12.82158    2107.7769 
     253            0   -349.71719   -75238.151   -75238.151   -75238.151   -75238.151 5.7267661e-10 -2.2553772e-10 -1.0786027e-11    12.820266    12.820266    12.820266    2107.1289 
     254            0   -349.74756   -74984.287   -74984.287   -74984.287   -74984.287 2.7645534e-11 -2.2449127e-10 -3.2395624e-10    12.818952    12.818952    12.818952    2106.4811 
     255            0   -349.77782   -74729.939   -74729.939   -74729.939   -74729.939 -7.701744e-10 -2.2630891e-10 -4.4696101e-10    12.817638    12.817638    12.817638    2105.8334 
     256            0   -349.80798   -74475.105   -74475.105   -74475.105   -74475.105 4.0870586e-10 -1.3946161e-09 -1.344278e-09    12.816324    12.816324    12.816324    2105.1859 
     257            0   -349.83802   -74219.784   -74219.784   -74219.784   -74219.784 4.891807e-11 -1.4455327e-10 -5.4884927e-11     12.81501     12.81501     12.81501    2104.5384 
     258            0   -349.86795   -73963.975   -73963.975   -73963.975   -73963.975 2.5844661e-11 1.3466303e-09 1.5221663e-09    12.813696    12.813696    12.813696    2103.8912 
     259            0   -349.89778   -73707.677   -73707.677   -73707.677   -73707.677 -9.4654657e-11 -6.6597523e-10 -1.0143372e-09    12.812382    12.812382    12.812382     2103.244 
     260            0   -349.92749   -73450.887   -73450.887   -73450.887   -73450.887 2.0489385e-10 -9.2299306e-10 -9.902442e-10    12.811068    12.811068    12.811068     2102.597 
     261            0   -349.95709   -73193.605   -73193.605   -73193.605   -73193.605 6.1539553e-10 -8.3251273e-10 -1.1401487e-09    12.809754    12.809754    12.809754    2101.9501 
     262            0   -349.98659    -72935.83    -72935.83    -72935.83    -72935.83 5.5333774e-10 1.0771972e-09 1.0235968e-09     12.80844     12.80844     12.80844    2101.3033 
     263            0   -350.01597   -72677.559   -72677.559   -72677.559   -72677.559 1.5111402e-10 8.6976808e-10 1.0140468e-09    12.807126    12.807126    12.807126    2100.6567 
     264            0   -350.04525   -72418.792   -72418.792   -72418.792   -72418.792 2.6258465e-10 -3.834655e-11 3.4776051e-10    12.805812    12.805812    12.805812    2100.0102 
     265            0   -350.07441   -72159.527   -72159.527   -72159.527   -72159.527 2.8295748e-10 9.7321372e-10 9.0616565e-10    12.804498    12.804498    12.804498    2099.3639 
     266            0   -350.10346   -71899.762   -71899.762   -71899.762   -71899.762 2.8821658e-10 2.580098e-10 -1.6698626e-10    12.803185    12.803185    12.803185    2098.7177 
     267            0    -350.1324   -71639.496   -71639.496   -71639.496   -71639.496 9.1738409e-10 9.0767765e-10 8.3329428e-10    12.801871    12.801871    12.801871    2098.0716 
     268            0   -350.16123   -71378.728   -71378.728   -71378.728   -71378.728 -3.3236979e-11 -2.2275972e-10 -5.1967161e-10    12.800557    12.800557    12.800557    2097.4256 
     269            0   -350.18995   -71117.457   -71117.457   -71117.457   -71117.457 6.661679e-10 -2.2445899e-10 -3.9052204e-10    12.799243    12.799243    12.799243    2096.7798 
     270            0   -350.21856    -70855.68    -70855.68    -70855.68    -70855.68 -3.3481814e-10 -6.8709161e-10 -4.8714673e-10    12.797929    12.797929    12.797929    2096.1341 
     271            0   -350.24706   -70593.396   -70593.396   -70593.396   -70593.396 -5.4760586e-11 9.722168e-10 6.1518476e-10    12.796615    12.796615    12.796615    2095.4885 
     272            0   -350.27544   -70330.604   -70330.604   -70330.604   -70330.604 -5.7919259e-10 -2.2769934e-10 -1.5641654e-10    12.795301    12.795301    12.795301    2094.8431 
     273            0   -350.30372   -70067.302   -70067.302   -70067.302   -70067.302 -1.4681116e-11 7.0573365e-10 7.3476093e-10    12.793987    12.793987    12.793987    2094.1978 
     274            0   -350.33188   -69803.489   -69803.489   -69803.489   -69803.489 5.4901076e-10 2.8203434e-10 4.3741238e-10    12.792673    12.792673    12.792673    2093.5526 
     275            0   -350.35993   -69539.163   -69539.163   -69539.163   -69539.163 -4.9412779e-10 -1.6341246e-09 -1.5544342e-09    12.791359    12.791359    12.791359    2092.9076 
     276            0   -350.38787   -69274.322   -69274.322   -69274.322   -69274.322 1.0605589e-10 -1.0658711e-09 -9.7341059e-10    12.790045    12.790045    12.790045    2092.2627 
     277            0   -350.41569   -69008.966   -69008.966   -69008.966   -69008.966 -2.0231939e-10 1.5814542e-10 1.1857322e-10    12.788731    12.788731    12.788731    2091.6179 
     278            0    -350.4434   -68743.092   -68743.092   -68743.092   -68743.092 5.4649394e-10 3.9152487e-10 3.5310136e-10    12.787417    12.787417    12.787417    2090.9733 
     279            0     -350.471   -68476.699   -68476.699   -68476.699   -68476.699 1.6845559e-10 -7.8509042e-12 1.9178518e-10    12.786103    12.786103    12.786103    2090.3288 
     280            0   -350.49849   -68209.786   -68209.786   -68209.786   -68209.786 7.8284983e-10 8.1276691e-11 2.7171054e-10    12.784789    12.784789    12.784789    2089.6844 
     281            0   -350.52586    -67942.35    -67942.35    -67942.35    -67942.35 2.2661627e-10 -9.0946273e-10 -9.7632527e-10    12.783475    12.783475    12.783475    2089.0402 
     282            0   -350.55312   -67674.391   -67674.391   -67674.391   -67674.391 6.7283049e-10 6.1659535e-10 7.3364606e-10    12.782161    12.782161    12.782161    2088.3961 
     283            0   -350.58027   -67405.907   -67405.907   -67405.907   -67405.907 2.0981701e-11 4.5091987e-10   9.9496e-11    12.780847    12.780847    12.780847    2087.7521 
     284            0    -350.6073   -67136.895   -67136.895   -67136.895   -67136.895 2.2410707e-10 -4.1073418e-10 -5.2351122e-10    12.779533    12.779533    12.779533    2087.1083 
     285            0   -350.63422   -66867.355   -66867.355   -66867.355   -66867.355 -4.1177509e-10 -5.8796552e-10 -4.7170627e-10    12.778219    12.778219    12.778219    2086.4646 
     286            0   -350.66103   -66597.285   -66597.285   -66597.285   -66597.285 6.6407698e-10 1.2753332e-09 1.3093205e-09    12.776905    12.776905    12.776905     2085.821 
     287            0   -350.68772   -66326.683   -66326.683   -66326.683   -66326.683 -2.4417173e-10 -1.2658095e-10 1.8847379e-10    12.775591    12.775591    12.775591    2085.1776 
     288            0    -350.7143   -66055.548   -66055.548   -66055.548   -66055.548 5.4467972e-11 2.9244878e-10 3.6989834e-10    12.774278    12.774278    12.774278    2084.5343 
     289            0   -350.74076   -65783.877   -65783.877   -65783.877   -65783.877 -4.9599768e-10 -6.3005718e-10 -2.8080301e-10    12.772964    12.772964    12.772964    2083.8911 
     290            0   -350.76711    -65511.67    -65511.67    -65511.67    -65511.67 5.5569988e-10 9.630362e-10 5.3941363e-10     12.77165     12.77165     12.77165    2083.2481 
     291            0   -350.79334   -65238.925   -65238.925   -65238.925   -65238.925 5.2928574e-10 1.9173016e-10 5.6200131e-11    12.770336    12.770336    12.770336    2082.6051 
     292            0   -350.81946    -64965.64    -64965.64    -64965.64    -64965.64 1.3579184e-10 1.1468138e-09 1.1082128e-09    12.769022    12.769022    12.769022    2081.9624 
     293            0   -350.84546   -64691.812   -64691.812   -64691.812   -64691.812 -2.0278945e-10 5.0414342e-10 3.1263876e-10    12.767708    12.767708    12.767708    2081.3197 
     294            0   -350.87135   -64417.442   -64417.442   -64417.442   -64417.442 -2.4831593e-10 -4.3860629e-10 -6.6061092e-10    12.766394    12.766394    12.766394    2080.6772 
     295            0   -350.89712   -64142.527   -64142.527   -64142.527   -64142.527 -1.9035978e-10 4.9977232e-10 2.2021817e-10     12.76508     12.76508     12.76508    2080.0348 
     296            0   -350.92278   -63867.064   -63867.064   -63867.064   -63867.064 -4.9277671e-10 -4.7731915e-10 -7.7260631e-10    12.763766    12.763766    12.763766    2079.3926 
[...]

Checking consistency of cutoff radii (in LAMMPS units):
LAMMPS Cutoff (via pair_coeff)  :   6.010E+00
Maximum symmetry function cutoff:   6.000E+00
Cutoff radii are consistent.
-------------------------------------------------------------------------------
Element mapping string from LAMMPS to n2p2: "2:Au"

CAUTION: Please ensure that this mapping between LAMMPS
         atom types and NNP elements is consistent:

---------------------------
LAMMPS type  |  NNP element
---------------------------
          1 <-> --
          2 <-> Au ( 79)
---------------------------

NNP setup for LAMMPS completed.
*******************************************************************************
Neighbor list info ...
  update every 1 steps, delay 0 steps, check yes
  max neighbors/atom: 2000, page size: 100000
  master list distance cutoff = 8.51
  ghost atom cutoff = 8.51
  binsize = 4.255, bins = 3 3 3
  1 neighbor lists, perpetual/occasional/extra = 1 0 0
  (1) pair nnp, perpetual
      attributes: full, newton on
      pair build: full/bin/atomonly
      stencil: full/bin/3d
      bin: standard
Per MPI rank memory allocation (min/avg/max) = 4.250 | 4.250 | 4.250 Mbytes
Step Temp PotEng Press Pxx Pyy Pzz Pxy Pxz Pyz Lx Ly Lz Volume 
     673            0   -353.45251 0.00027549332 0.00031931116 0.00036658545 0.00014058335   -2.8077485 1.8791778e-05 -1.077096e-06    12.517657    12.517657    12.517657    1961.4136 
     674            0   -353.45251 0.00014867476 0.00019278124 0.00023617034 1.7072691e-05   -2.8077542 -1.4263542e-06 -4.4135835e-07    12.517657    12.517657    12.517657    1961.4136 
     675            0   -353.45251 0.0001289807  0.000173258 0.00021680597 -3.1218773e-06   -2.8077535 1.5378564e-07 5.5584117e-08    12.517657    12.517657    12.517657    1961.4136 
     676            0   -353.45251 0.00012439966 0.00016855239 0.0002120428 -7.3962214e-06   -2.8077534 -9.3604484e-08 -6.4189596e-08    12.517657    12.517657    12.517657    1961.4136 
     677            0   -353.45251 0.00012309643 0.00016724235 0.00021066381 -8.6168546e-06   -2.8077536 -9.3361718e-09 3.3913759e-09    12.517657    12.517657    12.517657    1961.4136 
     678            0   -353.45251 0.00012253455 0.0001667258  0.000210005 -9.127154e-06   -2.8077537 -1.8265327e-08 -8.0513709e-09    12.517657    12.517657    12.517657    1961.4136 
     679            0   -353.45251 0.00012234112 0.00016657068 0.00020977516 -9.3224826e-06   -2.8077537 -1.3809699e-08 -3.9571046e-09    12.517657    12.517657    12.517657    1961.4136 
     680            0   -353.45251 0.00012223011 0.00016648704 0.00020963671 -9.4334067e-06   -2.8077537 -7.7489002e-09 -3.6310724e-09    12.517657    12.517657    12.517657    1961.4136 
     681            0   -353.45251 0.00012217753 0.00016644207 0.00020957918 -9.4886737e-06   -2.8077537 -3.7859526e-09 -1.0196032e-09    12.517657    12.517657    12.517657    1961.4136 
     682            0   -353.45251 0.00012216034 0.00016642681 0.00020955972 -9.5054962e-06   -2.8077537 -1.0578423e-09 -8.0238983e-10    12.517657    12.517657    12.517657    1961.4136 
     683            0   -353.45251 0.00012215741 0.00016642208 0.00020955687 -9.5067227e-06   -2.8077537 1.2207207e-09 1.4697563e-09    12.517657    12.517657    12.517657    1961.4136 
     684            0   -353.45251 0.00012215583 0.0001664211 0.00020955617 -9.5097919e-06   -2.8077537 -1.2275575e-09 -9.098884e-10    12.517657    12.517657    12.517657    1961.4136 
     685            0   -353.45251 0.00012215436 0.00016641935 0.00020955429 -9.5105407e-06   -2.8077537 4.9818493e-10  9.87186e-11    12.517657    12.517657    12.517657    1961.4136 
     686            0   -353.45251 0.00012215379 0.00016641898 0.00020955324 -9.5108587e-06   -2.8077537 3.6763852e-10 1.0684523e-10    12.517657    12.517657    12.517657    1961.4136 
     687            0   -353.45251 0.00012215397 0.0001664188 0.00020955417 -9.51106e-06   -2.8077537 -1.0632962e-09 -4.3538469e-10    12.517657    12.517657    12.517657    1961.4136 
     688            0   -353.45251 0.00012215328 0.00016641818 0.00020955346 -9.5118104e-06   -2.8077537 -9.2420988e-10 -4.6480993e-10    12.517657    12.517657    12.517657    1961.4136 
     689            0   -353.45251 0.00012215221 0.00016641705 0.00020955184 -9.5122551e-06   -2.8077537 -8.5627612e-10 -3.2134801e-10    12.517657    12.517657    12.517657    1961.4136 
     690            0   -353.45251 0.00012215303 0.00016641745 0.00020955253 -9.5108792e-06   -2.8077537 1.5979858e-09 1.007728e-09    12.517657    12.517657    12.517657    1961.4136 
     691            0   -353.45251 0.00012215167 0.00016641609 0.00020955125 -9.5123132e-06   -2.8077537 7.1142207e-10 1.792503e-12    12.517657    12.517657    12.517657    1961.4136 
     692            0   -353.45251 0.0001221544 0.00016641984 0.00020955311 -9.5097591e-06   -2.8077537 6.0953976e-10 6.6648306e-10    12.517657    12.517657    12.517657    1961.4136 
     693            0   -353.45251 0.0001221582 0.00016642266 0.00020955702 -9.5050861e-06   -2.8077537 8.1353217e-10 7.3826975e-10    12.517657    12.517657    12.517657    1961.4136 
     694            0   -353.45251 0.00012215796 0.0001664232 0.00020955694 -9.5062643e-06   -2.8077537 2.1029373e-10 -5.481607e-11    12.517657    12.517657    12.517657    1961.4136 
     695            0   -353.45251 0.00012215873 0.00016642434 0.00020955759 -9.5057476e-06   -2.8077537 7.8661018e-11 -4.1710561e-10    12.517657    12.517657    12.517657    1961.4136 
     696            0   -353.45251 0.00012215683 0.00016642215 0.00020955569 -9.5073376e-06   -2.8077537 -5.643978e-11 1.3760201e-10    12.517657    12.517657    12.517657    1961.4136 
Loop time of 4.2679 on 1 procs for 23 steps with 108 atoms

99.9% CPU use with 1 MPI tasks x no OpenMP threads

Minimization stats:
  Stopping criterion = force tolerance
  Energy initial, next-to-last, final = 
     -353.452509596245  -353.452509627493  -353.452509627493
  Force two-norm initial, final = 0.00069138509 1.8290522e-11
  Force max component initial, final = 9.3182160e-05 2.8539220e-12
  Final line search alpha, max atom move = 1.0000000 2.8539220e-12
  Iterations, force evaluations = 23 46

MPI task timing breakdown:
Section |  min time  |  avg time  |  max time  |%varavg| %total
---------------------------------------------------------------
Pair    | 4.2658     | 4.2658     | 4.2658     |   0.0 | 99.95
Neigh   | 0          | 0          | 0          |   0.0 |  0.00
Comm    | 0.00051149 | 0.00051149 | 0.00051149 |   0.0 |  0.01
Output  | 0.00094316 | 0.00094316 | 0.00094316 |   0.0 |  0.02
Modify  | 0          | 0          | 0          |   0.0 |  0.00
Other   |            | 0.0006467  |            |       |  0.02

Nlocal:        108.000 ave         108 max         108 min
Histogram: 1 0 0 0 0 0 0 0 0 0
Nghost:        1580.00 ave        1580 max        1580 min
Histogram: 1 0 0 0 0 0 0 0 0 0
Neighs:        0.00000 ave           0 max           0 min
Histogram: 1 0 0 0 0 0 0 0 0 0
FullNghs:      15120.0 ave       15120 max       15120 min
Histogram: 1 0 0 0 0 0 0 0 0 0

Total # of neighbors = 15120
Ave neighs/atom = 140.00000
Neighbor list builds = 0
Dangerous builds = 0

# Obtain new stress tensor

variable tmp equal pe
variable e1 equal ${tmp}
variable e1 equal -353.452509627493
variable tmp equal press
variable p1 equal ${tmp}
variable p1 equal 0.000122156833633012
variable tmp equal pxx
variable pxx1 equal ${tmp}
variable pxx1 equal 0.000166422152178187
variable tmp equal pyy
variable pyy1 equal ${tmp}
variable pyy1 equal 0.000209555686330915
variable tmp equal pzz
variable pzz1 equal ${tmp}
variable pzz1 equal -9.50733761006559e-06
variable tmp equal pxy
variable pxy1 equal ${tmp}
variable pxy1 equal -2.80775368274889
variable tmp equal pxz
variable pxz1 equal ${tmp}
variable pxz1 equal -5.64397801016324e-11
variable tmp equal pyz
variable pyz1 equal ${tmp}
variable pyz1 equal 1.3760200965454e-10

# Compute elastic constant from pressure tensor

variable C1pos equal ${d1}
variable C1pos equal -0.00166419684426268
variable C2pos equal ${d2}
variable C2pos equal -0.00209550971872761
variable C3pos equal ${d3}
variable C3pos equal 9.51184177399429e-05
variable C4pos equal ${d4}
variable C4pos equal 4.77193035919976e-08
variable C5pos equal ${d5}
variable C5pos equal 4.1731275661068e-08
variable C6pos equal ${d6}
variable C6pos equal 28.0775368356976

# Combine positive and negative

variable C1${dir} equal 0.5*(${C1neg}+${C1pos})
variable C16 equal 0.5*(${C1neg}+${C1pos})
variable C16 equal 0.5*(0.00166421263966578+${C1pos})
variable C16 equal 0.5*(0.00166421263966578+-0.00166419684426268)
variable C2${dir} equal 0.5*(${C2neg}+${C2pos})
variable C26 equal 0.5*(${C2neg}+${C2pos})
variable C26 equal 0.5*(0.00209553386733025+${C2pos})
variable C26 equal 0.5*(0.00209553386733025+-0.00209550971872761)
variable C3${dir} equal 0.5*(${C3neg}+${C3pos})
variable C36 equal 0.5*(${C3neg}+${C3pos})
variable C36 equal 0.5*(-9.51056867427538e-05+${C3pos})
variable C36 equal 0.5*(-9.51056867427538e-05+9.51184177399429e-05)
variable C4${dir} equal 0.5*(${C4neg}+${C4pos})
variable C46 equal 0.5*(${C4neg}+${C4pos})
variable C46 equal 0.5*(-4.51806715661594e-08+${C4pos})
variable C46 equal 0.5*(-4.51806715661594e-08+4.77193035919976e-08)
variable C5${dir} equal 0.5*(${C5neg}+${C5pos})
variable C56 equal 0.5*(${C5neg}+${C5pos})
variable C56 equal 0.5*(-3.56131345828334e-08+${C5pos})
variable C56 equal 0.5*(-3.56131345828334e-08+4.1731275661068e-08)
variable C6${dir} equal 0.5*(${C6neg}+${C6pos})
variable C66 equal 0.5*(${C6neg}+${C6pos})
variable C66 equal 0.5*(28.0775368008506+${C6pos})
variable C66 equal 0.5*(28.0775368008506+28.0775368356976)

# Delete dir to make sure it is not reused

variable dir delete

# Output final values

variable C11all equal ${C11}
variable C11all equal 149.36296316837
variable C22all equal ${C22}
variable C22all equal 149.362963118211
variable C33all equal ${C33}
variable C33all equal 149.362963112112

variable C12all equal 0.5*(${C12}+${C21})
variable C12all equal 0.5*(123.317882436554+${C21})
variable C12all equal 0.5*(123.317882436554+123.317882486345)
variable C13all equal 0.5*(${C13}+${C31})
variable C13all equal 0.5*(123.317882427963+${C31})
variable C13all equal 0.5*(123.317882427963+123.317882490983)
variable C23all equal 0.5*(${C23}+${C32})
variable C23all equal 0.5*(123.317882436368+${C32})
variable C23all equal 0.5*(123.317882436368+123.31788245164)

variable C44all equal ${C44}
variable C44all equal 28.0775368244235
variable C55all equal ${C55}
variable C55all equal 28.0775368083923
variable C66all equal ${C66}
variable C66all equal 28.0775368182741

variable C14all equal 0.5*(${C14}+${C41})
variable C14all equal 0.5*(-2.29097331042451e-08+${C41})
variable C14all equal 0.5*(-2.29097331042451e-08+7.91514369522475e-09)
variable C15all equal 0.5*(${C15}+${C51})
variable C15all equal 0.5*(-1.1660000700099e-08+${C51})
variable C15all equal 0.5*(-1.1660000700099e-08+5.18197473743195e-09)
variable C16all equal 0.5*(${C16}+${C61})
variable C16all equal 0.5*(7.89770155003311e-09+${C61})
variable C16all equal 0.5*(7.89770155003311e-09+-5.50280143339053e-11)

variable C24all equal 0.5*(${C24}+${C42})
variable C24all equal 0.5*(-1.29434528799198e-08+${C42})
variable C24all equal 0.5*(-1.29434528799198e-08+7.5861763665512e-09)
variable C25all equal 0.5*(${C25}+${C52})
variable C25all equal 0.5*(-2.18103336674548e-08+${C52})
variable C25all equal 0.5*(-2.18103336674548e-08+1.05918721415771e-08)
variable C26all equal 0.5*(${C26}+${C62})
variable C26all equal 0.5*(1.20743013198431e-08+${C62})
variable C26all equal 0.5*(1.20743013198431e-08+-5.13888114839676e-09)

variable C34all equal 0.5*(${C34}+${C43})
variable C34all equal 0.5*(-5.14780845121271e-10+${C43})
variable C34all equal 0.5*(-5.14780845121271e-10+-8.24007532928325e-09)
variable C35all equal 0.5*(${C35}+${C53})
variable C35all equal 0.5*(-1.75299963850462e-08+${C53})
variable C35all equal 0.5*(-1.75299963850462e-08+-1.08802952108631e-08)
variable C36all equal 0.5*(${C36}+${C63})
variable C36all equal 0.5*(6.36549859455153e-09+${C63})
variable C36all equal 0.5*(6.36549859455153e-09+4.02806523376561e-09)

variable C45all equal 0.5*(${C45}+${C54})
variable C45all equal 0.5*(6.509808050611e-09+${C54})
variable C45all equal 0.5*(6.509808050611e-09+2.1094187433174e-08)
variable C46all equal 0.5*(${C46}+${C64})
variable C46all equal 0.5*(1.2693160129191e-09+${C64})
variable C46all equal 0.5*(1.2693160129191e-09+8.62294071754995e-09)
variable C56all equal 0.5*(${C56}+${C65})
variable C56all equal 0.5*(3.0590705391173e-09+${C65})
variable C56all equal 0.5*(3.0590705391173e-09+5.9409685402591e-10)

# Average moduli for cubic crystals

variable C11cubic equal (${C11all}+${C22all}+${C33all})/3.0
variable C11cubic equal (149.36296316837+${C22all}+${C33all})/3.0
variable C11cubic equal (149.36296316837+149.362963118211+${C33all})/3.0
variable C11cubic equal (149.36296316837+149.362963118211+149.362963112112)/3.0
variable C12cubic equal (${C12all}+${C13all}+${C23all})/3.0
variable C12cubic equal (123.317882461449+${C13all}+${C23all})/3.0
variable C12cubic equal (123.317882461449+123.317882459473+${C23all})/3.0
variable C12cubic equal (123.317882461449+123.317882459473+123.317882444004)/3.0
variable C44cubic equal (${C44all}+${C55all}+${C66all})/3.0
variable C44cubic equal (28.0775368244235+${C55all}+${C66all})/3.0
variable C44cubic equal (28.0775368244235+28.0775368083923+${C66all})/3.0
variable C44cubic equal (28.0775368244235+28.0775368083923+28.0775368182741)/3.0

variable bulkmodulus equal (${C11cubic}+2*${C12cubic})/3.0
variable bulkmodulus equal (149.362963132898+2*${C12cubic})/3.0
variable bulkmodulus equal (149.362963132898+2*123.317882454975)/3.0
variable shearmodulus1 equal ${C44cubic}
variable shearmodulus1 equal 28.07753681703
variable shearmodulus2 equal (${C11cubic}-${C12cubic})/2.0
variable shearmodulus2 equal (149.362963132898-${C12cubic})/2.0
variable shearmodulus2 equal (149.362963132898-123.317882454975)/2.0
variable poissonratio equal 1.0/(1.0+${C11cubic}/${C12cubic})
variable poissonratio equal 1.0/(1.0+149.362963132898/${C12cubic})
variable poissonratio equal 1.0/(1.0+149.362963132898/123.317882454975)

# For Stillinger-Weber silicon, the analytical results
# are known to be (E. R. Cowley, 1988):
#               C11 = 151.4 GPa
#               C12 = 76.4 GPa
#               C44 = 56.4 GPa

print "========================================="
=========================================
print "Components of the Elastic Constant Tensor"
Components of the Elastic Constant Tensor
print "========================================="
=========================================

print "Elastic Constant C11 = ${C11all} ${cunits}"
Elastic Constant C11 = 149.36296316837 GPa
print "Elastic Constant C22 = ${C22all} ${cunits}"
Elastic Constant C22 = 149.362963118211 GPa
print "Elastic Constant C33 = ${C33all} ${cunits}"
Elastic Constant C33 = 149.362963112112 GPa

print "Elastic Constant C12 = ${C12all} ${cunits}"
Elastic Constant C12 = 123.317882461449 GPa
print "Elastic Constant C13 = ${C13all} ${cunits}"
Elastic Constant C13 = 123.317882459473 GPa
print "Elastic Constant C23 = ${C23all} ${cunits}"
Elastic Constant C23 = 123.317882444004 GPa

print "Elastic Constant C44 = ${C44all} ${cunits}"
Elastic Constant C44 = 28.0775368244235 GPa
print "Elastic Constant C55 = ${C55all} ${cunits}"
Elastic Constant C55 = 28.0775368083923 GPa
print "Elastic Constant C66 = ${C66all} ${cunits}"
Elastic Constant C66 = 28.0775368182741 GPa

print "Elastic Constant C14 = ${C14all} ${cunits}"
Elastic Constant C14 = -7.49729470451018e-09 GPa
print "Elastic Constant C15 = ${C15all} ${cunits}"
Elastic Constant C15 = -3.23901298133353e-09 GPa
print "Elastic Constant C16 = ${C16all} ${cunits}"
Elastic Constant C16 = 3.9213367678496e-09 GPa

print "Elastic Constant C24 = ${C24all} ${cunits}"
Elastic Constant C24 = -2.6786382566843e-09 GPa
print "Elastic Constant C25 = ${C25all} ${cunits}"
Elastic Constant C25 = -5.60923076293885e-09 GPa
print "Elastic Constant C26 = ${C26all} ${cunits}"
Elastic Constant C26 = 3.46771008572317e-09 GPa

print "Elastic Constant C34 = ${C34all} ${cunits}"
Elastic Constant C34 = -4.37742808720226e-09 GPa
print "Elastic Constant C35 = ${C35all} ${cunits}"
Elastic Constant C35 = -1.42051457979547e-08 GPa
print "Elastic Constant C36 = ${C36all} ${cunits}"
Elastic Constant C36 = 5.19678191415857e-09 GPa

print "Elastic Constant C45 = ${C45all} ${cunits}"
Elastic Constant C45 = 1.38019977418925e-08 GPa
print "Elastic Constant C46 = ${C46all} ${cunits}"
Elastic Constant C46 = 4.94612836523452e-09 GPa
print "Elastic Constant C56 = ${C56all} ${cunits}"
Elastic Constant C56 = 1.82658369657161e-09 GPa

print "========================================="
=========================================
print "Average properties for a cubic crystal"
Average properties for a cubic crystal
print "========================================="
=========================================

print "Bulk Modulus = ${bulkmodulus} ${cunits}"
Bulk Modulus = 131.999576014283 GPa
print "Shear Modulus 1 = ${shearmodulus1} ${cunits}"
Shear Modulus 1 = 28.07753681703 GPa
print "Shear Modulus 2 = ${shearmodulus2} ${cunits}"
Shear Modulus 2 = 13.0225403389615 GPa
print "Poisson Ratio = ${poissonratio}"
Poisson Ratio = 0.452242555538193
# Compute elastic constant tensor for a crystal
#
# Written by Aidan Thompson (Sandia, athomps@sandia.gov)
#
#  This script uses the following three include files.
#
#   init.mod      (must be modified for different crystal structures)
# 	       	  Define units, deformation parameters and initial
#		  configuration of the atoms and simulation cell.
#
#
#   potential.mod    (must be modified for different pair styles)
# 		     Define pair style and other attributes
#		     not stored in restart file
#
#
#   displace.mod    (displace.mod should not need to be modified)
# 		    Perform positive and negative box displacements
# 		    in direction ${dir} and size ${up}.
# 		    It uses the resultant changes
#		    in stress to compute one
# 		    row of the elastic stiffness tensor
#
#		    Inputs variables:
#		    	   dir = the Voigt deformation component
#		    		    (1,2,3,4,5,6)
#		    Global constants:
#       	    	   up = the deformation magnitude (strain units)
#       		   cfac = conversion from LAMMPS pressure units to
#               	   output units for elastic constants
#
#
#  To run this on a different system, it should only be necessary to
#  modify the files init.mod and potential.mod. In order to calculate
#  the elastic constants correctly, care must be taken to specify
#  the correct units in init.mod (units, cfac and cunits). It is also
#  important to verify that the minimization of energy w.r.t atom
#  positions in the deformed cell is fully converged.
#  One indication of this is that the elastic constants are insensitive
#  to the choice of the variable ${up} in init.mod. Another is to check
#  the final max and two-norm forces reported in the log file. If you know
#  that minimization is not required, you can set maxiter = 0.0 in
#  init.mod.
#

include init.mod
# NOTE: This script can be modified for different atomic structures,
# units, etc. See in.elastic for more info.
#

# Define the finite deformation size. Try several values of this
# variable to verify that results do not depend on it.
variable up equal 1.0e-5

# Define the amount of random jiggle for atoms
# This prevents atoms from staying on saddle points
variable atomjiggle equal 1.0e-5

# Uncomment one of these blocks, depending on what units
# you are using in LAMMPS and for output

# metal units, elastic constants in eV/A^3
#units		metal
#variable cfac equal 6.2414e-7
#variable cunits string eV/A^3

# metal units, elastic constants in GPa
units		metal
ERROR: Units command after simulation box is defined (../input.cpp:1906)
Last command: units		metal
