ITEM: TIMESTEP
0
ITEM: NUMBER OF ATOMS
128
ITEM: BOX BOUNDS pp pp pp
0.0 13.2781843431999995 
0.0 13.2781843431999995
0.0 13.2781843431999995
ITEM: ATOMS id type x y z fx fy fz
1   2      0.18930     13.25119      0.10314         0.501493      0.368196      0.896631
2   2      1.72743      1.69847      2.01944        -0.205599     -0.669389     -0.745218
3   2     12.78839      0.23934      3.40611         1.072219     -0.557533      1.337633
4   2      1.91410      1.66534      4.81175        -0.115623     -0.288100      0.690822
5   2     12.99909     13.03049      6.31435        -0.332889      0.307437     -0.383162
6   2      1.61968      1.18715      7.66724         0.548590      0.018319      0.033389
7   2      0.36130     13.11999      9.90412        -1.343174      0.331354     -0.934720
8   2      1.44874      1.73418     11.61439         0.109269     -1.135796     -0.068716
9   2      0.24553      3.40669      0.09110        -0.552561     -1.154582     -0.796518
10   2      1.39898      4.96538      1.84693         2.013830      1.178008     -0.132901
11   2     13.21169      3.24343      3.56920        -0.827147     -0.919493      0.641870
12   2      1.53371      4.95162      4.79468         0.495327      0.330439      1.602884
13   2     13.07739      3.15672      6.72259         0.827575      1.024771     -0.885820
14   2      1.94293      5.07937      8.25766        -0.787002      0.508491      0.203673
15   2      0.31596      2.99019      9.48908        -1.487028     -0.111418     -0.655178
16   2      1.25485      4.76526     11.24669         1.208356      0.847021      0.301551
17   2      0.23329      6.83002     13.23639        -0.150087     -1.300314      0.303289
18   2      1.77881      8.43756      1.79242         0.054089      0.039415      0.345766
19   2      0.02690      6.83839      3.44425        -0.291003      0.169910     -0.008604
20   2      1.77689      8.34709      4.94708        -0.787110     -0.718024     -1.006825
21   2      0.30820      6.75499      6.62646         0.959434      0.723652     -0.560685
22   2      1.54359      8.52102      8.37877         0.297913     -0.073257     -0.234425
23   2     13.24171      6.95954     10.22449        -0.115382      0.465744     -0.188239
24   2      1.82834      8.58639     12.08609        -0.014038      1.162554     -1.179234
25   2      0.08354     10.18683      0.33413        -0.131825     -0.234284      0.677178
26   2      1.52164     11.69369      2.37057        -0.050719      0.062712     -1.760710
27   2     13.02909      9.91093      3.51822         0.323603     -0.535227     -0.244958
28   2      1.68814     11.74099      4.98133        -0.246398     -0.354473      0.464018
29   2     12.85569      9.67454      6.44711         1.695740      0.329030     -0.507399
30   2      1.61119     11.41519      7.84866         0.084246      0.008309      0.338950
31   2     13.12537     10.08947     10.05792        -0.320267     -0.634503     -0.401327
32   2      1.48783     11.48479     11.64489         1.607125      0.078359      0.829512
33   2      3.18173     13.16516      0.23074        -0.589909     -0.498365      0.194465
34   2      4.89520      1.76551      1.59429         0.283188      0.219714      0.638845
35   2      3.64308     13.18911      3.31922         0.045760      0.461372      0.395139
36   2      5.14034      1.91737      4.80197        -0.466575      0.155800      0.342323
37   2      3.77656     13.01989      6.27744        -0.925181      1.410759      1.013775
38   2      5.01339      1.73763      8.07743        -0.080952     -0.744195      0.056402
39   2      3.13861      0.12760      9.83705         0.555444     -0.181325     -0.058619
40   2      4.88138      1.44774     12.00869        -0.399928      0.134814     -1.730226
41   2      3.07932      3.12357     13.17265         0.350446      1.125828      0.743534
42   2      4.81356      5.08006      1.51704         0.133101     -0.688264     -0.208987
43   2      3.31466      3.60677      3.21885         0.762618     -0.815441      0.472035
44   2      5.06465      5.10437      4.89966         0.413481     -1.533662     -0.442048
45   2      3.32374      3.33462      6.67136        -0.080172      0.095032     -0.801209
46   2      4.99394      4.96487      8.40138        -0.339030      0.016143      0.328251
47   2      3.05084      3.03929      9.75361         1.271562     -0.105298      0.027566
48   2      4.60767      4.84068     11.49109         0.172789     -0.407740     -0.444929
49   2      3.17906      6.51794     13.07341        -0.191569     -0.379119      0.868569
50   2      4.98346      8.26227      1.68122         0.368914     -1.073140      0.082972
51   2      3.33881      6.59111      3.28590        -0.783375      0.209461     -0.270642
52   2      5.19784      7.96207      4.74324         0.208355      1.281748      0.405348
53   2      3.54351      6.51052      6.52770        -1.108501      0.854151      0.509513
54   2      4.93968      8.34474      8.25274        -0.276268      0.266042      0.428273
55   2      3.14446      6.84146     10.16713        -0.177732      0.080235     -0.656356
56   2      4.86209      8.47714     11.66809         0.200104      0.277939     -0.063172
57   2      3.60203     10.11855      0.41163        -1.425706      0.530966     -1.349133
58   2      5.23529     11.61839      1.77354         0.898716      1.471181      0.022390
59   2      3.75659     10.07951      3.44398        -1.044732     -0.411584     -0.072519
60   2      5.47958     11.55049      5.04250         1.150363     -0.354241     -0.549740
61   2      3.36893      9.85234      6.18870         1.591659      0.810633      1.910689
62   2      4.89730     11.52709      8.33390        -0.269492     -0.430311     -0.647053
63   2      3.21552     10.01763     10.02218         0.050254      0.043395     -0.354622
64   2      4.82072     11.83929     11.54089        -1.358555     -1.322560      1.589763
65   2      6.70311      0.13190      0.14820         0.097635     -0.169917      0.215550
66   2      8.27642      2.05335      1.48057         0.001003     -0.717091     -0.286675
67   2      6.86886      0.28914      3.45537        -0.118154     -0.727695     -0.846717
68   2      8.39333      1.94800      4.96383        -0.439436      0.303169      0.341735
69   2      6.90944      0.16958      6.79201        -0.547061     -0.603537     -0.610757
70   2      8.28739      1.37478      8.73309        -0.288024      0.667403     -0.499620
71   2      6.38929     13.06099      9.99630         1.082259      1.920922     -1.424565
72   2      8.35060      1.57460     11.55609        -0.320788     -0.016133     -0.254464
73   2      6.53359      3.36077     13.02999        -0.885730     -0.319308     -0.213243
74   2      8.04444      5.01435      1.15273         1.325754      0.273898      0.431942
75   2      6.73883      3.56503      3.11584        -0.488100     -0.144587      0.745470
76   2      8.70771      5.08422      4.97715        -0.702733     -0.541199     -0.652491
77   2      6.78759      3.44638      6.50476        -0.140854      0.361613      0.599662
78   2      7.98974      4.94034      8.64399         0.482428     -0.254491     -0.445647
79   2      6.28901      3.13585     10.01184         0.377871     -0.368090      0.562965
80   2      8.37494      4.60949     11.39899        -0.575706      1.409664     -1.153143
81   2      6.25243      6.54217     13.07459         0.536243      0.614790     -0.403888
82   2      8.28740      8.17333      1.47173         0.481601     -0.366651     -0.083086
83   2      6.81127      6.41640      3.12432         0.004558      0.204469     -0.023328
84   2      8.48036      8.07617      4.56922        -0.413079     -0.564205      0.467261
85   2      6.51784      6.57484      6.71584         1.083771      0.159802      0.212915
86   2      8.10252      8.27389      8.63029         0.598429      0.046426     -0.079061
87   2      6.60439      6.69800     10.25297        -0.747492     -0.314679      0.033604
88   2      8.37129      8.15801     11.81339         0.134136      0.020310     -0.093827
89   2      6.68390      9.97164      0.05072        -0.783415     -0.727073     -0.152494
90   2      8.27352     11.69569      1.58730        -0.575303      0.692964      1.197422
91   2      6.76977      9.82214      3.15498         0.337764      0.014286      0.715809
92   2      8.41641     11.59289      5.00701        -2.269081      0.661745     -0.448032
93   2      6.82193      9.78583      6.68353        -0.573087     -0.087315     -0.040776
94   2      8.59248     11.37069      8.45833        -0.632726      0.595900      0.012321
95   2      6.66232     10.08392     10.05929        -1.053952     -0.988405     -0.505634
96   2      7.95681     11.63429     11.68459         1.652468      1.171066      0.147916
97   2      9.78937      0.06990      0.05870         0.703474      0.241835     -0.220400
98   2     11.84239      1.76873      1.51580        -0.986583      0.643253     -1.023178
99   2      9.89991      0.47573      3.16095        -0.378451     -1.046592     -0.372930
100   2     11.10989      1.88386      5.16150         1.529768      0.028189     -0.018073
101   2      9.77152     13.20239      6.54579         0.490433      0.428013      1.152796
102   2     11.62879      1.40353      8.10377         0.100812     -0.994856      0.442155
103   2     10.17624     13.12182      9.94110         0.475905     -0.431705      0.620994
104   2     11.69919      1.56695     11.65329         0.296304     -0.100189      0.119325
105   2      9.98584      3.43634     12.99009         0.997908     -1.317238      1.611110
106   2     12.04979      4.85636      1.74438        -1.460582      0.197037     -0.595059
107   2      9.99852      3.40024      3.10934         0.321087      0.814031     -0.148636
108   2     11.61939      5.31309      5.28277        -0.036720     -1.104901     -0.556872
109   2     10.08411      3.57006      7.05564        -0.781316      0.446144     -0.051457
110   2     11.95859      5.49479      8.14626        -0.803223     -1.117929      1.409127
111   2     10.22729      3.01200      9.74703         0.097205      1.017962      0.916330
112   2     11.77669      4.86650     11.65159         0.372392      0.171079     -1.152732
113   2     10.22681      6.34302      0.03290        -0.841928     -0.021198     -0.135501
114   2     11.73809      8.23521      1.62109        -0.118018      1.046194      0.326694
115   2     10.20430      6.39061      2.79757        -1.346382      0.075568      1.463834
116   2     11.28199      7.99711      5.09207        -0.305725      0.203357     -0.695380
117   2      9.54270      6.60556      6.96652         0.342543      0.515482      0.531160
118   2     11.43589      8.42852      8.34736        -0.104712     -0.359265      0.587479
119   2     10.10442      6.66479     10.02128        -0.192099     -0.294408      0.389963
120   2     11.52149      8.37125     12.16429         0.268099      0.712707     -1.490922
121   2      9.75639     10.19685     13.26980         0.714681     -0.628862      0.038892
122   2     11.43349     11.75929      1.79052         0.212153     -0.232480     -0.460361
123   2      9.73604     10.12026      3.28475        -0.461506     -2.449654     -2.564217
124   2     11.19229     11.40329      4.81650         1.896594      1.938395      1.722597
125   2      9.60582      9.73589      6.55576         0.762818     -0.814432      0.331657
126   2     11.59189     11.38479      8.02145        -0.633127      0.674089      0.967612
127   2     10.11808     10.09196     10.39031         0.021766     -0.253273     -0.234948
128   2     11.79489     11.75179     11.96029        -0.774800      0.038294     -0.731308
