ITEM: TIMESTEP
0
ITEM: NUMBER OF ATOMS
128
ITEM: BOX BOUNDS pp pp pp
0.0 13.2781843431999995 
0.0 13.2781843431999995
0.0 13.2781843431999995
ITEM: ATOMS id type x y z fx fy fz
1   2      0.37636     13.03699      0.41569        -0.767179     -0.052237     -0.684690
2   2      1.80807      1.70620      1.70818         0.813048      0.856635     -0.098980
3   2      0.26860      0.27637      3.33242        -0.344423     -0.554422      0.884012
4   2      1.76525      2.23661      4.90587        -0.106392     -1.819196     -0.869038
5   2      0.01397      0.36632      6.55783         0.623522     -0.772281     -0.244714
6   2      1.88562      1.56948      8.32388        -0.503483      0.463815     -0.650373
7   2      0.07594      0.01425      9.69944         0.587134      0.461740      0.193089
8   2      1.81900      1.26752     11.63809        -0.606489      0.283479      0.653305
9   2      0.09582      3.20176      0.16950        -0.134518      0.061561     -0.817472
10   2      1.47842      5.48459      1.35745         0.609377     -0.676426     -0.463472
11   2     13.17739      3.43653      3.01293        -0.503273     -0.028598     -0.111018
12   2      1.36116      4.87188      4.89918         0.748653      0.980667     -0.444363
13   2     13.12741      3.34580      6.59865         0.321043      0.542981      0.100558
14   2      1.69325      4.34782      8.69243        -0.828514      1.167572     -0.894402
15   2     13.18938      3.03188     10.44854         0.249567     -0.148193      0.468212
16   2      1.94906      5.14691     11.50099        -1.087699      0.574170      1.255355
17   2     13.03969      6.94476     12.97349         0.647700      0.394087      0.075483
18   2      1.55869      8.32452      1.68708         0.539981     -0.874277     -0.271873
19   2     13.03049      6.50248      3.21848        -0.356597      0.534801      0.052933
20   2      1.47896      7.81971      5.09587        -0.082759      0.406515     -0.115529
21   2     13.20609      6.13951      6.91349        -0.267525      0.144936      0.498307
22   2      1.56137      8.15171      8.12758        -0.303293     -0.007754      0.090173
23   2      0.07420      6.43694      9.81368         0.110366      0.677760      0.399520
24   2      1.43401      8.66902     11.65989         0.327713     -0.465316     -0.474845
25   2      0.03120     10.16134      0.23210        -0.568413      0.234807     -1.127837
26   2      1.88825     11.13119      1.87769        -0.245191      0.889962      0.688790
27   2      0.24620      9.82347      3.52497        -1.646307     -0.623266      0.531078
28   2      1.54517     11.65069      5.02553         0.330415      0.913488      0.240067
29   2     13.24539     10.04721      6.59976        -0.403291     -0.503088      0.308574
30   2      1.83461     11.66499      7.89741        -0.135805      1.571451      0.073758
31   2      0.30790     10.21311      9.58536        -1.235457     -0.691874     -0.423592
32   2      1.69075     11.65459     11.41709         0.115206      0.232848      0.800391
33   2      3.16695     12.93979      0.31760         0.909586      0.564905     -0.811698
34   2      4.79732      1.66338      1.55045         0.249160      0.306936      0.683700
35   2      3.28563     13.09459      3.34638        -0.421839      1.357951      0.658003
36   2      5.06016      1.95352      4.80736        -0.131229      0.019156     -0.525150
37   2      3.51094      0.20279      6.29415        -1.152176      0.760492      0.691612
38   2      4.95169      1.75715      8.39329        -0.356621      0.793654      0.626617
39   2      3.39362     13.19479      9.73583         0.186787     -0.713706     -0.055564
40   2      4.79343      1.26490     11.69269        -0.213918     -0.148563      1.095961
41   2      3.44291      3.44946     13.24279        -0.346643      0.346190      0.065420
42   2      5.08264      5.39062      1.39970        -0.633905     -0.542320     -0.851504
43   2      3.37660      3.66531      3.00902         0.072219      0.215645      0.050616
44   2      5.22414      4.78065      5.04373        -0.714408      1.128591     -0.590173
45   2      3.36153      3.33391      6.69236         0.500990      0.476547      0.110750
46   2      4.82693      4.94687      8.44707         0.408648     -0.612892      0.207211
47   2      3.31672      3.19699     10.39200         1.563983     -0.606437     -0.375186
48   2      5.07442      5.46149     11.67809        -0.352515     -1.375525      0.009114
49   2      3.43859      7.23359     12.99389        -0.856454     -0.518264      0.758900
50   2      4.86082      8.48769      1.79920        -0.055847     -0.371552     -0.095141
51   2      3.29185      6.53689      3.30630         0.126880      0.031898      0.185283
52   2      4.92470      7.92736      5.22880         0.429569     -0.273146      0.015562
53   2      3.03096      6.29021      6.74075         0.646366     -0.404694      0.048366
54   2      5.11878      8.19221      8.11098        -0.239938     -0.089831     -0.135146
55   2      3.39263      6.79787      9.87149        -0.462606      0.554524     -0.212789
56   2      5.04723      8.61882     11.31039         0.271731     -0.009392     -0.735725
57   2      3.43160     10.16171     13.17679        -0.090676     -1.035065     -0.280222
58   2      4.79416     11.32399      2.05760         1.114430     -0.648131     -0.561614
59   2      3.28433      9.75735      3.78408        -0.106739     -0.969281      0.050028
60   2      4.88185     11.55789      5.17400         1.016807     -0.588369     -0.663839
61   2      3.20793      9.81841      6.57111         0.337024     -1.021857     -0.003234
62   2      4.97367     11.47509      8.08915        -0.701383      0.416546      0.431306
63   2      3.10469      9.88691      9.68700         0.577655     -0.435067     -0.290093
64   2      4.81823     11.39719     11.23379         1.100936      0.825420      0.129598
65   2      6.27650     13.04899      0.28598        -0.031860     -0.548778     -0.466149
66   2      8.20508      1.13180      1.71922        -0.232443      1.365086     -0.198217
67   2      6.27108     13.18832      3.36187         0.423910      0.471625      0.170525
68   2      8.14193      1.62245      4.92941        -0.328431      0.423401     -0.375321
69   2      6.40139      0.19720      6.84094         0.908932     -0.175301     -1.020545
70   2      8.39354      1.84818      8.30271        -0.760947     -0.956206      0.369248
71   2      6.62870      0.07020     10.00780         0.032960     -0.435227     -0.337360
72   2      8.25512      1.55947     12.13489         0.085500     -1.386347      0.288293
73   2      6.57124      3.31533      0.01549        -0.970009     -0.137523      1.221457
74   2      8.59171      5.12102      1.22711        -0.666898      0.042282     -0.154351
75   2      6.75577      3.61948      2.99201        -0.255491     -0.698690     -0.748591
76   2      8.44019      4.75381      4.74629        -0.279978      0.476874      0.521512
77   2      6.67514      3.25756      6.71718         0.166948      0.116224      0.200547
78   2      8.35248      4.53304      8.68835        -0.233070      1.054025      0.399250
79   2      6.56199      2.91508     10.47437        -0.221373      0.838664     -1.092145
80   2      8.03529      4.90806     11.76109         1.072118      0.675106     -0.622987
81   2      6.75342      7.20723     12.92479         0.451301     -0.584594      0.631239
82   2      8.28957      8.41388      1.58689         0.282407      0.779849     -0.385964
83   2      6.58741      6.72094      3.07536         0.769009      0.048819      1.267418
84   2      8.55645      8.15962      5.36214        -0.674083     -0.237824      0.152592
85   2      6.84348      6.16203      6.88139         0.331397      0.595860     -0.322253
86   2      8.49470      8.27460      8.28113        -0.058561      0.094305     -1.012172
87   2      6.74822      6.55235      9.83468         0.007541      0.207282     -0.361972
88   2      8.23456      8.65202     11.00829         0.995232     -1.407014      2.835016
89   2      6.54794      9.96648      0.07234        -0.341457      0.300625      0.424671
90   2      8.24125     11.58379      1.96707         0.115812     -0.802070     -0.088245
91   2      6.74800      9.65190      3.61588        -0.032558      0.248606      0.367857
92   2      8.21647     11.89079      4.93999         0.078289     -0.422917      0.432312
93   2      6.74081     10.02565      6.57292         0.210843     -0.941395     -0.728871
94   2      8.23576     11.75799      8.06482         0.502188      1.018865     -0.776056
95   2      6.80326     10.04473      9.50031        -1.875910      0.975689     -0.064542
96   2      7.97133     11.62959     11.86679         0.401867      0.287162     -0.784150
97   2     10.03169     12.88439      0.08233        -0.582737      0.088905     -0.196757
98   2     11.52439      1.24937      1.65255         1.016890      1.208568     -0.598650
99   2      9.98755      0.12549      3.45752        -0.227638     -0.891782      0.872384
100   2     11.61089      1.80411      4.89149         0.088962      0.733602     -0.778572
101   2     10.01355      0.45855      6.61362        -0.235759     -1.344046     -0.198552
102   2     11.74069      1.83492      8.24418        -0.782929     -0.428766      1.410607
103   2      9.48118     13.23966      9.99498         0.832005      0.317098      0.786617
104   2     11.77239      1.02169     11.85309         0.084534      0.878706     -0.137845
105   2     10.23796      3.14640     13.26059        -0.045454     -0.242636     -0.248846
106   2     11.59099      5.21576      1.18731        -0.243981     -0.101611      0.852618
107   2      9.94311      3.28314      2.84329         0.136402     -0.193685      0.435849
108   2     11.29489      5.03863      4.87648         0.387743     -0.132339     -0.393646
109   2      9.92876      3.47007      6.70020         0.420089     -0.193582     -0.452206
110   2     11.54579      4.58158      8.83322        -0.295432      0.228073     -0.682627
111   2      9.83518      2.92759     10.44144         0.947240      0.182952     -0.054214
112   2     11.53679      5.13816     11.60779         0.103053     -0.928006      0.143682
113   2      9.95277      7.12613     12.93929        -0.208973      0.181393     -0.088663
114   2     11.60389      8.63582      1.62551        -0.187111     -0.935687      0.331516
115   2      9.62471      6.72019      3.14852         1.109594     -0.130977      0.606269
116   2     11.77979      7.98010      5.32396        -0.303021      0.397853     -0.394578
117   2     10.04180      6.46886      6.97065         0.153225     -0.815664      0.137756
118   2     11.64709      8.41558      8.35650         0.091013     -0.033035      0.028322
119   2      9.96518      6.63845      9.99827        -0.195775      0.125410     -0.082011
120   2     11.72759      8.75630     11.30669         0.026277     -0.424975     -0.367503
121   2     10.10316     10.20301     13.09489        -0.413744     -0.707714      0.266153
122   2     11.70239     11.65049      2.02360        -0.122866     -0.588349      0.264559
123   2      9.99330      9.61117      3.57803         0.103592      0.943588      0.181731
124   2     11.79719     11.74779      4.94606        -0.130187      0.361824     -0.319087
125   2     10.15359     10.28430      6.59026        -0.266030     -0.552069     -0.160376
126   2     11.46439     11.98629      8.35285         0.162289     -0.007650     -0.780519
127   2      9.85916     10.35883      9.81964         0.531657     -0.017129      0.003520
128   2     11.93889     11.58189     11.34119        -0.399101      0.124556      0.618642
