ITEM: TIMESTEP
0
ITEM: NUMBER OF ATOMS
128
ITEM: BOX BOUNDS pp pp pp
0.0 13.2781843431999995 
0.0 13.2781843431999995
0.0 13.2781843431999995
ITEM: ATOMS id type x y z fx fy fz
1   2     13.11349      0.02842      0.27096        -0.531314     -0.231348     -0.870438
2   2      1.47287      1.71430      1.68597         0.860403      0.233702      0.084718
3   2      0.01319      0.25889      3.31457        -0.930723     -1.135245      0.232519
4   2      1.68403      2.22991      4.51488         1.469006     -0.777457      0.684072
5   2      0.39102      0.51554      6.03048        -1.140471     -1.667132      0.459460
6   2      1.71312      1.49238      8.07308        -1.059290     -1.141831      2.536104
7   2      0.05347     13.21699     10.25340         0.543802      0.685434     -0.880321
8   2      1.61096      1.81839     12.36929         1.944623     -1.581475     -2.740158
9   2     13.00219      3.28121     13.10189        -0.982480      0.653804      2.319655
10   2      1.63274      4.82685      1.44634         0.201537     -0.115384     -0.266443
11   2     13.10069      3.33201      3.09914        -1.930920      0.674757     -0.751510
12   2      1.43294      4.95619      4.77589         0.968913      0.179216     -0.709136
13   2      0.31831      3.32725      6.63929        -1.701448      0.607426      0.586177
14   2      1.52081      4.99104      8.70313        -0.717154     -0.812693     -0.369695
15   2      0.00870      3.04532      9.97336         0.459002      0.281613     -0.356706
16   2      1.72993      4.61179     11.76779        -0.408108     -0.027289      0.337447
17   2     13.26829      6.66062      0.30307        -0.316399      0.273197     -1.189175
18   2      1.65062      8.10690      1.81343         0.265241      0.517181     -0.297198
19   2     13.14249      6.34079      3.11852         0.526645      0.069165     -1.220543
20   2      1.52265      8.03367      4.82434         0.505741      0.224112     -0.033564
21   2      0.12552      6.25155      6.64746        -1.057221      1.135158      0.990761
22   2      1.53643      8.32281      8.44005        -0.186132      0.358265     -0.180791
23   2     13.12889      6.43406     10.53244         1.692140      0.899740     -1.495309
24   2      1.79561      8.88929     11.59079        -1.656752     -1.867538     -1.137137
25   2      0.30168     10.14943      0.34119        -0.693294     -0.891507     -0.170569
26   2      1.80817     12.03009      1.57861         1.282906     -0.026269      1.515388
27   2      0.10725     10.35309      3.14078         0.438247     -0.844785      0.788949
28   2      1.91611     11.82639      4.97960        -0.775204      0.268459     -0.884562
29   2     13.27439      9.92491      6.36080         0.503253     -0.073769     -0.262065
30   2      1.35284     11.87409      8.21554         0.677501     -0.183568     -1.488137
31   2      0.21225     10.52401     10.21115         0.840506     -1.966766     -1.364216
32   2      1.81970     12.02289     12.08779         0.328414     -0.066369     -1.204907
33   2      3.72146      0.18546      0.14079         0.139037     -0.239288      0.721813
34   2      5.50057      1.69835      1.77117         1.290857     -0.118978     -0.315381
35   2      3.68518      0.60900      3.22920        -2.077501     -3.931808     -0.505538
36   2      5.11125      1.79359      4.91333         1.676866      0.556949      0.925518
37   2      3.47743      0.36349      6.22942        -0.595822     -1.206805      1.016766
38   2      4.89213      1.66569      8.43099         0.482626     -0.872064     -0.098127
39   2      3.09767     13.26559      9.80222         0.837646     -0.314320      1.101131
40   2      5.24259      1.53448     11.66689         0.560493      0.125927     -0.720057
41   2      3.79019      3.25671      0.15629        -0.366791      0.070308     -0.825189
42   2      5.40766      4.77914      1.89337        -0.076223      1.358275     -1.961240
43   2      3.49140      3.20781      2.81183        -0.785428      1.146325      0.461571
44   2      4.12646      4.72070      4.90596         1.483036      0.683264      0.743199
45   2      3.08685      3.24465      6.93996         1.293268      1.300049     -1.131114
46   2      4.42242      5.13247      8.47214        -0.088892     -0.365299      0.716528
47   2      3.23894      2.94739     10.13760        -1.329276     -1.143206     -0.546133
48   2      4.80913      4.61100     11.29109         1.629283      1.045426      0.642568
49   2      3.58009      6.36351     12.96779        -0.774715     -0.526516      2.604659
50   2      5.28184      8.29097      1.69159        -0.187735      0.452162     -0.339505
51   2      3.45750      6.39039      2.85466        -0.078605      0.787815      0.330258
52   2      4.50307      8.24619      5.34349        -0.509944     -0.815711     -1.659048
53   2      2.94670      6.46666      6.78950        -0.866303      0.565007     -1.175773
54   2      4.69492      7.84599      8.34144        -0.522872      1.343220      0.426633
55   2      2.72612      6.65189     10.34122         0.183358      0.356724     -0.816999
56   2      4.65401      8.07586     11.41819         1.289399      2.242566     -0.049195
57   2      3.25600      9.94428     13.27159         2.459194      0.772860      2.605198
58   2      5.21160     11.25509      2.11624        -0.374029     -0.135141     -0.270775
59   2      2.93401     10.01502      3.28249         1.155486     -0.363403     -0.083390
60   2      5.21130     11.49729      5.10876        -0.783773      0.341246     -0.362102
61   2      3.10898     10.19356      6.66221        -0.149594     -0.710783      0.762122
62   2      4.94481     11.74549      8.06799         0.291229      0.312925     -0.063667
63   2      3.37569     10.22970      9.75614        -0.125854     -0.140470     -0.343204
64   2      4.91340     11.68069     11.58379        -0.381836      0.696759     -0.555338
65   2      6.76580     12.97349      0.34476        -0.252231     -0.663271     -0.694213
66   2      8.23906      1.70411      1.41830         1.184608     -0.707156      0.429006
67   2      7.08026     12.95159      3.43282        -1.168799      0.574985     -0.130903
68   2      8.32006      1.91403      5.37464        -0.055744      1.055425     -0.328210
69   2      6.81633      0.08557      6.53884        -1.203116     -0.036092      0.828073
70   2      8.32977      1.80189      8.21088        -0.950064     -0.528370     -0.955833
71   2      6.64412     13.21969      9.74344         0.114914     -0.212701     -0.023311
72   2      8.25185      1.22820     11.62519        -1.066246     -0.063406     -0.279239
73   2      6.77978      3.38567      0.00150        -0.260077      0.640099     -1.642901
74   2      8.24835      5.27920      1.49422        -0.504464     -0.655769      0.139270
75   2      6.60447      3.59980      3.83496         1.239520     -0.092571      0.141793
76   2      8.51306      4.95934      5.15984        -0.404781      0.342358      1.749421
77   2      6.08808      3.48468      6.79509         0.789163      0.052654     -1.461621
78   2      8.45289      5.82013      8.21118         0.785687     -1.659412      0.105516
79   2      6.54510      3.84894      9.32055         2.057548     -0.628600      1.629822
80   2      8.56360      5.21257     11.24679        -0.900319      1.093391     -0.949096
81   2      6.54800      6.57336     12.95829         0.032804      0.081158     -0.002790
82   2      8.32966      8.22505      1.73787        -0.428695     -0.105660      0.251017
83   2      6.50834      6.56255      3.55809         0.370050      0.822058      0.851231
84   2      8.40683      7.99747      5.44999         0.040913     -0.474608     -0.045504
85   2      6.30849      6.26876      6.66635        -0.109231      0.412071     -1.116702
86   2      8.31703      8.47403      8.43719        -0.122071     -0.153337     -1.010770
87   2      6.57415      6.72365      9.99171        -0.004728     -0.467832      0.362468
88   2      8.37303      8.44418     11.36359        -0.478754     -0.461861      0.372378
89   2      6.61593     10.13763     12.88539        -0.556153     -1.567677      1.608404
90   2      8.33595     11.11479      1.81845         0.082893      0.181687     -0.264571
91   2      6.86752      9.61332      3.88656        -0.708702     -0.685137     -0.967409
92   2      8.26915     11.37789      5.36968         0.475836      0.074963     -0.656665
93   2      6.28768      9.47577      6.77840         0.907174      0.750877      0.547220
94   2      8.15081     11.33219      8.05251        -0.370611      0.570814      1.034983
95   2      6.34057      9.70733      9.84181        -0.581049      0.895455      0.124148
96   2      8.23067     11.49489     11.38329         0.830203      0.840390     -0.874272
97   2     10.02764     13.04189     12.94799        -0.323904     -0.384379      0.763223
98   2     11.23779      1.46076      1.45836        -0.554310      1.282350      0.637491
99   2      9.66193      0.33019      3.49007         0.547069     -0.602360     -0.362388
100   2     11.48219      1.78480      4.92355         0.421770     -0.088395     -0.834687
101   2      9.95240      0.03007      6.52866         0.434403     -0.575167      0.503055
102   2     11.94569      1.41554      8.05013        -0.199085     -0.157987      0.525415
103   2     10.08429     13.17549      9.56520        -0.239127     -0.128656      0.383888
104   2     11.73969      1.53857     11.50309        -1.957309     -0.065467      0.549954
105   2      9.56035      3.38486     12.75679         0.804323     -1.067878      2.050533
106   2     11.45359      4.93779      1.46076        -0.856093     -0.911364      0.032165
107   2      9.47933      3.27505      3.22530         0.984900      0.261013     -0.389058
108   2     11.50729      5.03139      4.85798         1.152363     -1.010339      0.609510
109   2     10.53029      3.42775      6.72172        -1.720909     -0.395018      0.462740
110   2     11.50039      4.86002      8.62379         0.557396      0.631151      1.016374
111   2      9.66345      2.92819     10.03665         1.351763      1.058557      0.098402
112   2     11.53969      4.88098     11.71649        -1.739403      0.047260     -0.405720
113   2      9.92994      6.71287     13.23469         0.400510      0.729684     -0.552968
114   2     11.43539      8.60247      1.67323         0.748964     -0.658990      0.672051
115   2      9.89615      6.32010      3.35451        -0.334142      2.114465     -1.157066
116   2     11.95999      8.04542      4.63572        -0.887564      1.319698      0.839591
117   2     10.55517      6.87343      6.80092         0.195551      0.034229      0.083845
118   2     11.99099      8.64982      8.59243         1.830108      0.068964     -1.107334
119   2     10.37438      7.17466      9.92134        -0.786376     -1.599815      0.789021
120   2     11.97879      8.43857     11.82529        -0.197830      0.884217      0.478710
121   2      9.84602      9.74927     13.18549        -0.075058      1.076665     -0.355366
122   2     11.46449     11.69849      1.79878        -1.118225     -0.008058     -0.373299
123   2      9.91537      9.82390      3.72360        -0.551699     -1.084548     -0.492387
124   2     11.50619     11.66969      4.64124         0.598152      1.137294      1.189721
125   2     10.23051      9.92179      6.69665         0.056394     -0.769447     -0.683549
126   2     11.86489     11.54659      8.06770        -0.064346      1.209530      0.126201
127   2     10.02716     10.09531      9.69196         0.375982      1.199906      1.339428
128   2     11.81499     11.40909     11.84559        -1.757305      0.303145      0.892903
