ITEM: TIMESTEP
0
ITEM: NUMBER OF ATOMS
128
ITEM: BOX BOUNDS pp pp pp
0.0 13.2781843431999995 
0.0 13.2781843431999995
0.0 13.2781843431999995
ITEM: ATOMS id type x y z fx fy fz
1   2     12.99018      0.12314     13.08282        -0.231178     -0.364511      0.152602
2   2      1.51490      1.52045      1.35584         0.017418      0.028643     -0.007243
3   2      0.03978      0.25216      3.47582         0.457923     -0.356044     -0.355141
4   2      1.79963      1.88618      4.88818        -0.405822      0.188838      0.360245
5   2      0.27290      0.24182      7.01959         0.326793     -0.195906     -0.161888
6   2      1.96970      1.72175      8.59511        -0.098375      0.481175      0.343852
7   2      0.04916     13.19772      9.95406         0.035817     -0.245788     -0.769618
8   2      1.48008      1.59016     11.48589         1.648404     -0.232508      1.123279
9   2     12.93407      3.22576     13.01557         0.410243     -0.196380      0.064752
10   2      1.59543      4.82105      1.20956         0.486652      0.384736     -0.247448
11   2      0.04034      3.44878      2.98494         0.627179     -0.980946      0.373705
12   2      1.67340      5.05149      4.90119         0.326443     -0.857412     -0.180590
13   2      0.27409      3.35636      6.91352         0.302830     -0.025602      0.387920
14   2      2.00792      5.04129      8.50057        -0.481885     -0.205108      1.423622
15   2     13.22104      3.20417     10.10387         0.017501      1.196043     -1.348934
16   2      1.57421      4.85047     11.63089         0.380623      0.594548      0.070146
17   2     12.91698      6.59868     13.11947         0.465460      0.513319      0.064313
18   2      1.39584      8.27696      1.59932        -0.066780      0.361900     -0.484514
19   2     13.17728      6.30673      2.92107        -0.007345      0.857599     -0.301849
20   2      1.39605      7.90660      4.71240         0.093632      0.633887      0.206097
21   2      0.12423      6.34090      6.88646        -0.280170      0.765435      0.411999
22   2      1.91001      8.23961      8.42061        -0.991918      0.029416     -0.036109
23   2      0.19318      6.71632      9.96347        -0.287463     -0.335894      0.500306
24   2      1.52531      8.45240     11.86079        -0.402367     -0.219326      0.537197
25   2     12.87190     10.26081      0.13260         0.546138     -0.693403     -0.657324
26   2      1.41775     11.75289      1.52417         0.263942      0.224218      0.439692
27   2      0.03726     10.15112      3.44491        -0.335266     -0.587513     -0.409321
28   2      1.62499     11.56019      5.17527         0.019012      1.004085     -0.121751
29   2      0.17692      9.59366      6.57905        -0.216371      0.251598      0.600717
30   2      1.90113     11.43669      8.37359        -0.259831      0.200811     -0.184158
31   2      0.10021     10.02994     10.02508        -0.245243     -0.322761     -0.070152
32   2      1.59481     11.65519     11.79639        -0.187526     -0.550410     -0.525338
33   2      3.38384     13.10616     13.13879         0.222952      0.147124      0.260939
34   2      5.04011      1.31502      1.51244         0.263195     -0.099315      0.267717
35   2      3.15353     13.20044      3.28301        -0.163311      0.103675     -0.172943
36   2      4.72061      1.73807      4.91420         0.162127      0.075222     -0.325731
37   2      3.18550      0.15548      6.71965         0.334023     -0.420931     -0.221711
38   2      4.92920      1.63582      8.53723         0.175144      0.378204     -0.466069
39   2      3.53262     13.06661     10.08666        -0.336197     -0.435430      0.095953
40   2      5.24256      1.29018     11.66999         0.185971      0.440812      0.060243
41   2      3.53092      3.10880      0.01943        -0.224955      0.064974     -0.885617
42   2      4.94828      5.04682      1.55299        -0.294527      0.210004     -0.000165
43   2      3.28439      3.02864      2.85085         0.061033      0.819207      0.396745
44   2      4.74996      5.00792      4.72182         0.013308      0.180025     -0.091761
45   2      3.33706      3.53292      6.70410         0.055835     -0.824469     -0.429002
46   2      4.95605      5.02820      8.35770         0.128861      0.537814      0.448302
47   2      3.51365      3.32503     10.34854         0.373792      0.179652      0.113462
48   2      5.35689      5.07588     11.99979        -0.386710     -0.176854     -0.637299
49   2      3.36845      6.74303     13.11332        -0.251986      0.046652      0.468026
50   2      5.08975      8.33488      1.69908        -0.824333     -0.129478     -0.097954
51   2      3.09118      6.55958      3.05982         0.001638     -0.477166     -1.186725
52   2      4.62723      8.10425      4.60233         0.800882     -0.234731      0.849800
53   2      3.18114      6.66478      6.67957         0.976951     -0.070128     -0.946021
54   2      4.98185      8.33751      8.18038        -0.210790     -0.013586      0.133824
55   2      3.67147      6.87297     10.28782        -0.152254     -0.506072      0.041965
56   2      5.28504      8.64749     11.94859        -0.317333     -0.957767     -0.140370
57   2      3.34223     10.11120      0.21785        -0.204165     -0.384230     -0.180400
58   2      5.04528     11.56009      1.85394        -0.299320      0.219298     -0.175079
59   2      3.09493      9.96788      3.31358        -0.404480      0.158469     -0.668156
60   2      4.71338     11.60049      5.00180         0.119496     -0.116870     -0.175552
61   2      3.20526      9.74627      6.41691         0.138618     -0.492939      0.294621
62   2      4.87832     11.42879      8.04209         0.028404     -0.285488      0.405722
63   2      3.24899      9.73037     10.16078         0.945608      1.073606      0.417305
64   2      5.33625     11.32219     11.53249        -0.419356      0.876594      0.257913
65   2      6.96219     12.99945      0.20265        -0.917768      0.674635      0.247603
66   2      8.34623      1.78434      1.94124         0.326458     -0.776688      0.391046
67   2      6.51811     13.25479      3.47287         0.281608      0.298192      0.417245
68   2      8.10581      1.83194      5.09670        -0.555454      0.259849     -0.447878
69   2      6.26461      0.01415      6.49631        -0.329155     -0.247414     -0.426431
70   2      7.96371      1.43941      7.90745         0.507144      1.583764      0.951745
71   2      6.74427     13.06581      9.71191        -0.856329     -0.368531     -0.102505
72   2      8.18899      1.39036     11.43599         0.303779      0.940466      0.349211
73   2      6.77875      3.04959      0.10454         0.001140      0.456290     -0.414724
74   2      8.48652      4.93089      1.78067        -0.019644     -0.662230     -0.755870
75   2      6.45752      3.42868      3.12216         0.064680     -0.400391      0.693272
76   2      8.12850      4.99029      5.22338         0.783646     -0.321977     -1.182581
77   2      6.30205      3.41109      6.49959        -0.264338     -0.354285      0.486389
78   2      7.94221      5.02711      8.21363         0.435862      0.120042     -0.092501
79   2      6.58220      3.41055     10.04397         0.019738     -0.512499      0.110524
80   2      8.29038      5.03354     11.61399        -0.250915     -0.104295      0.486993
81   2      6.89226      6.71428      0.33651         0.230709      0.186039     -0.707732
82   2      8.48969      8.42733      1.91663         0.655905     -0.016694      0.396071
83   2      6.83847      6.57822      3.19545        -0.967368     -0.295024      0.542693
84   2      8.37712      8.15259      4.81098         1.134161      0.229764      0.158277
85   2      6.53849      6.69261      6.42273        -1.033242      0.534065      0.470686
86   2      8.47320      8.31667      7.95515        -0.549118     -0.291572     -0.018955
87   2      6.59101      6.87074      9.96740         0.090876     -0.208481      0.017933
88   2      8.16758      8.50028     11.65779         0.682934      0.108957     -0.072589
89   2      6.94861     10.02557      0.40503         0.136638      0.898343     -0.223993
90   2      8.56625     11.94309      2.10862        -0.018684     -0.574725      0.513321
91   2      6.52319      9.88661      3.50639         0.684676      0.534445     -0.055137
92   2      8.40177     11.76809      5.15707        -0.657528     -0.995576     -1.288809
93   2      6.55781      9.61264      6.28695        -0.217761      0.738610      0.249560
94   2      8.16667     11.56509      7.80938         0.001866     -0.215525      0.532716
95   2      6.83762      9.93138      9.65576        -0.224533     -0.049259     -0.067528
96   2      8.33385     11.79629     11.57129         0.744193     -1.420568     -0.444315
97   2      9.98998     13.27408      0.05774        -0.036474      0.681097     -0.133821
98   2     11.59619      1.69999      1.77778        -0.608245     -0.217402     -0.080059
99   2     10.02740      0.35295      3.88190         0.663309     -0.133590     -1.345344
100   2     11.95269      1.79560      5.29706        -0.259218      0.490532     -0.147999
101   2      9.97929      0.14115      6.59960         0.885115      0.030110      0.924337
102   2     11.56919      1.74464      8.35249         0.086436      0.302864     -0.304812
103   2      9.81270      0.03764      9.57942        -0.208566     -0.477030     -0.276719
104   2     11.38629      1.63218     11.30139        -0.837031     -0.342115      0.394117
105   2      9.81023      3.11069     13.24528        -0.242945     -0.196112     -0.738150
106   2     11.43769      4.78578      1.35820        -0.377500      0.314516      0.088040
107   2     10.00635      3.44879      3.64164         0.229604     -0.519609      0.010361
108   2     12.12879      4.81400      4.97874        -1.291344     -0.003500      0.776888
109   2      9.91561      3.41240      6.63325         0.117344     -0.126634      0.228364
110   2     11.51939      4.82804      8.43187         0.489493      0.628224     -0.189714
111   2      9.65673      3.39039      9.79977        -0.516755     -0.663552      0.060079
112   2     11.43079      5.05782     11.35259        -0.187830      0.002859      0.243360
113   2      9.83177      6.84964     13.17578         0.315522     -0.316019      0.028163
114   2     11.33909      8.45338      1.74228         1.015975     -0.884833      0.118844
115   2     10.24234      6.28239      3.34759        -0.190985      0.949940      0.681215
116   2     11.79189      8.04798      4.97585        -0.037563      0.073822     -0.496078
117   2     10.09798      6.56151      6.55406         0.108279     -0.480444      0.146615
118   2     11.69879      8.14615      8.42663        -0.219853      0.305268     -0.097418
119   2      9.67868      6.66192      9.86221         0.246725      0.397425     -0.038987
120   2     11.47119      8.55745     11.57729        -0.183660     -0.029549     -0.336337
121   2     10.05381     10.33295      0.25840        -0.994055     -0.207768     -0.952044
122   2     11.59219     11.91079      1.92694         0.397333      0.815933      0.424403
123   2     10.27334     10.18785      3.55676        -0.501460     -0.254084      1.027101
124   2     12.04509     11.90929      5.34173        -0.548956     -0.405249     -0.237226
125   2     10.29501      9.91841      6.55598        -0.164809     -0.062852     -0.404233
126   2     11.85939     11.52139      8.20153        -0.144957      0.117383      0.152772
127   2      9.76106     10.09197      9.61863         0.563168     -0.013316      0.604284
128   2     11.40449     11.79609     11.30559        -0.216861     -0.756663      0.245217
