ITEM: TIMESTEP
0
ITEM: NUMBER OF ATOMS
128
ITEM: BOX BOUNDS pp pp pp
0.0 13.2781843431999995 
0.0 13.2781843431999995
0.0 13.2781843431999995
ITEM: ATOMS id type x y z fx fy fz
1   2     13.19089      0.25883     13.16889         0.346416     -0.279287     -0.087571
2   2      1.66423      1.91383      1.57694         0.230514     -0.777720      0.564466
3   2      0.01547      0.46485      3.39425         1.115477     -1.241012      0.296687
4   2      1.87242      1.74506      5.28085         0.476935     -0.496343      0.254620
5   2      0.30289     13.19509      6.96002        -0.086344      0.033435     -0.464758
6   2      1.64001      1.94374      8.35233        -0.206725     -0.630993     -0.716490
7   2     13.01869     12.86949      9.75275         0.042264      0.638074     -0.740910
8   2      1.34420      1.50404     11.00769        -0.219778     -0.303865      0.948434
9   2      0.13234      3.27382     12.86729        -0.657560     -0.118525     -0.123549
10   2      1.85900      4.68263      1.28478        -0.954612     -0.031131      0.287036
11   2      0.48412      3.38049      3.73505        -0.205373      0.505221     -1.191857
12   2      1.91491      5.27739      5.27469        -0.203185     -0.157337      0.865539
13   2      0.07318      3.57733      6.70823         1.083591      0.304126      0.435053
14   2      1.75504      5.06691      8.36198        -0.178323      0.773564     -0.178422
15   2     13.08749      3.67418      9.91521        -0.240702     -0.907755     -0.306952
16   2      1.49929      5.22846     11.30419         0.312937     -0.705221      0.148909
17   2      0.02610      6.56147      0.04701        -0.253212      0.376304      0.038234
18   2      1.71763      8.35052      1.39176         0.942914     -0.439082      0.220641
19   2      0.40538      6.43433      3.27855        -0.722748      0.456956     -0.118192
20   2      2.07387      8.06174      4.98065        -0.570792      0.523634     -0.278876
21   2     13.26899      7.05797      6.88845         0.331040     -1.118017     -1.337612
22   2      1.78398      8.31580      8.38006        -0.039115      0.560164      0.770906
23   2     13.00219      6.65271      9.88029        -0.457000      0.429688     -0.369158
24   2      1.47591      8.11517     11.36759         0.151211      0.612177      0.828809
25   2     13.11245      9.93977      0.27771         0.020227      0.295983     -1.069907
26   2      1.42463     11.92719      1.66605         0.253070      0.066308     -0.486393
27   2      0.13455      9.94962      3.03944         0.661941      0.143128      1.267602
28   2      1.69313     11.94779      4.99846        -0.936420     -0.926362     -0.931331
29   2      0.11580      9.77993      6.36271         0.234143      0.363621     -0.273047
30   2      1.53705     11.10859      8.38517         0.439451      0.540042      0.217430
31   2     12.93609      9.71705      9.89381         0.282476      0.771101     -0.026528
32   2      1.34353     11.62819     11.64399        -0.242742     -0.288809     -0.231151
33   2      3.09220      0.07440     13.05419        -0.022749     -0.208252      0.280552
34   2      4.67500      2.00165      1.51995        -0.033267     -1.137294      1.214174
35   2      3.40694     13.18749      3.11197        -0.505141      1.225427      0.123841
36   2      4.83832      1.49384      5.14810        -0.178064      0.050931     -0.106634
37   2      3.16984     13.10069      6.84540         0.443047      0.113729      0.935900
38   2      4.77045      1.41439      8.39370         0.398836      0.278254      0.401456
39   2      3.23424     12.99089      9.95579        -0.110456     -0.621555     -0.160622
40   2      4.92316      1.45343     11.39469         0.167954      0.419954     -0.722621
41   2      3.17360      3.00046     12.79039        -0.309181      0.652658     -0.669650
42   2      4.69513      4.70724      1.32419         0.858427      0.323839     -0.117785
43   2      3.56098      3.58449      3.75161        -0.515699     -0.924341     -0.817150
44   2      4.92648      5.13572      5.42786         1.156104      0.383092     -0.443098
45   2      3.55196      3.48079      6.93205        -0.858956     -1.091777     -0.193044
46   2      5.28004      4.92544      8.38990        -0.251481      0.918287      0.405875
47   2      3.17273      3.36025     10.02364         1.289782      0.400832      0.091710
48   2      5.29533      4.81790     11.45269        -1.204891      0.570007      0.611163
49   2      3.23560      6.38536     12.86489         1.152229      1.152564      0.607529
50   2      4.75249      8.60334      1.72053        -1.429390     -0.487535      0.096308
51   2      3.17567      6.32425      2.93931         0.719063      1.271121      0.408569
52   2      4.90828      8.21911      5.01704         0.088244      0.543703     -0.004874
53   2      3.61967      6.84337      7.07467        -0.096702     -0.209561     -0.076947
54   2      5.31800      8.58603      8.46850        -0.324051     -0.530362      0.485278
55   2      3.61857      6.79505      9.92271         0.213684     -0.407410      0.367782
56   2      5.09745      8.40215     11.76409         0.247580     -0.146827      0.207146
57   2      3.20154     10.14494     12.95366        -0.282113     -0.308356      1.552939
58   2      4.97652     11.71719      1.48529        -0.946605     -0.768390      0.432891
59   2      3.11329     10.24066      3.33305        -0.212009     -0.753163     -0.528869
60   2      4.74225     11.63299      4.99262         0.963489     -0.111646     -0.076468
61   2      3.42835      9.91668      6.65880        -0.322433     -0.020335      0.167274
62   2      5.15463     11.52839      8.24902        -1.246946     -0.836504      1.307927
63   2      3.37106      9.87857     10.27684        -0.035245      0.653761     -1.351972
64   2      5.23337     11.62739     11.79579        -0.575342     -0.058971     -0.795141
65   2      6.33780      0.22905      0.07261         1.545488      0.439266      0.150780
66   2      8.23094      1.68386      1.71975        -0.253771     -0.438178     -0.330390
67   2      6.32739      0.09360      3.21845         0.396116      0.185729      0.376180
68   2      8.01045      1.58992      5.08949         0.025888     -1.132321     -0.529070
69   2      6.48801     13.01586      6.64542         1.384846      0.998813     -0.697315
70   2      8.40111      1.68245      8.44531         0.440400     -0.142302     -0.698378
71   2      6.69213     13.20939      9.90034         0.569522     -0.008196      0.102667
72   2      8.50183      1.80484     11.49439         0.005520     -0.354445     -0.102828
73   2      6.60136      3.05167     13.11379         0.088303     -0.043087     -0.414505
74   2      7.77238      4.76094      1.57932         0.609486      0.556406      0.366602
75   2      6.48637      3.32093      3.49683        -1.227847     -0.875809     -0.589124
76   2      7.90751      4.90235      5.01242         0.702309      0.650422      0.423165
77   2      6.58605      2.91124      6.86865        -0.491750      1.077110      0.218494
78   2      8.49479      5.00239      8.24880        -0.223108     -0.555736     -0.396037
79   2      6.79845      3.35280      9.84644         0.515061     -1.013334      0.369733
80   2      8.24137      4.99735     11.76859         0.034791     -0.334770      0.438559
81   2      6.30659      6.82175      0.39048         0.685981     -0.180679     -0.443755
82   2      8.61382      8.08764      1.82050        -1.781487      0.746564     -0.378271
83   2      6.07315      6.51412      3.35316         0.651969     -0.371496     -1.084515
84   2      8.12885      8.00098      4.70990         0.062572      0.428136      0.252454
85   2      6.84561      6.63929      6.82235        -0.244365      1.035828      0.206472
86   2      8.71185      8.39323      8.24661        -2.514051     -0.707507     -0.801693
87   2      6.75184      6.79399     10.21530         0.287574      0.423093     -0.506189
88   2      8.66444      8.42630     12.14939        -2.288125     -2.348536      1.917515
89   2      6.62041      9.97981      0.33582         1.555162     -0.421693     -0.450349
90   2      8.33074     12.07209      1.72197        -0.401824     -0.596414      0.183613
91   2      6.49652      9.88286      3.33135         0.765018      0.687191      0.369117
92   2      8.43849     11.82489      4.82562        -0.646008      0.353233     -0.201916
93   2      6.70245      9.85676      6.58011         0.609007      0.234296     -1.172467
94   2      8.34112     11.38359      8.28364         0.581512      0.726939     -0.624572
95   2      6.88580     10.09616     10.13758        -0.830592     -0.987048      0.068188
96   2      8.26626     11.62689     11.81219         0.484029      0.757659      0.828036
97   2     10.00278      0.07102      0.00990        -0.446635      0.397172     -0.259004
98   2     11.89449      1.91737      1.69706        -0.684755      1.015153     -0.640246
99   2     10.40168      0.29861      3.31722        -1.340789      0.422626      1.076795
100   2     11.96919      1.79520      5.29824        -0.146085      0.105162     -1.107189
101   2     10.07342      0.30551      6.36133        -0.739233     -1.257264      0.624048
102   2     11.80949      1.66387      8.03721        -0.594246      0.231137      1.480210
103   2      9.88846     13.16929      9.72265         0.560851     -0.679409      0.251674
104   2     11.39909      1.45666     11.46249         0.594871      0.816476     -0.500057
105   2      9.94805      3.33200      0.18593         0.127380     -0.146199      0.058304
106   2     12.08839      4.75960      1.73357        -0.560694     -0.257426      0.349586
107   2      9.57026      3.13352      3.51106         1.188840      0.863452     -0.400193
108   2     11.73129      4.78287      4.94064        -0.043239      0.772724     -1.157835
109   2      9.86202      3.39032      6.35297        -0.224611     -0.354450      0.937510
110   2     11.59959      5.20721      8.06011        -0.403951     -0.536823      0.403777
111   2     10.31820      3.43384      9.76315        -0.874118     -0.449386     -0.028953
112   2     11.38479      5.04985     11.73859         0.275807      0.194364      0.009620
113   2      9.94601      6.24285      0.45048         0.475975     -0.055185     -0.437984
114   2     11.62599      8.19345      2.08867        -0.171207     -1.131001     -1.465225
115   2      9.83637      6.25577      3.31245         0.721824     -0.957029      0.536339
116   2     11.71299      8.27276      4.72022        -0.049678     -0.060735      0.841407
117   2     10.15282      6.52941      6.29009        -1.244323      0.777242     -0.448102
118   2     11.32399      8.29456      8.23333         0.408839      0.396234      0.018818
119   2      9.61305      6.61576     10.05303         1.102098      0.198489      0.755717
120   2     11.64619      8.26454     11.78119        -0.367106     -0.543201      0.451373
121   2     10.22062      9.97101      0.34051         0.016012      0.803430     -0.193177
122   2     11.61339     11.95059      1.65343         0.990366     -0.753494      0.091870
123   2      9.82177     10.11949      3.13897         0.020217      0.157772      0.720641
124   2     11.78829     11.45249      4.67172        -0.058465      0.372846      0.580458
125   2      9.75198      9.90288      6.28862         0.508840      0.011428     -0.751143
126   2     11.58469     11.47979      7.70714        -0.645873     -0.179112      0.407247
127   2      9.68638      9.70063     10.31850         2.259334      2.307330     -1.720580
128   2     11.58579     11.60359     11.56909        -0.741570     -0.579402      0.818988
