ITEM: TIMESTEP
0
ITEM: NUMBER OF ATOMS
128
ITEM: BOX BOUNDS pp pp pp
0.0 13.2781843431999995 
0.0 13.2781843431999995
0.0 13.2781843431999995
ITEM: ATOMS id type x y z fx fy fz
1   2     13.20069      0.19999      0.25600        -0.410311     -0.903839     -0.133185
2   2      1.62789      1.85971      1.71190        -0.278481      0.214610      1.247628
3   2      0.18590      0.19926      3.58214        -0.266916      0.853953     -0.109699
4   2      2.10191      1.94088      4.97846        -0.978787     -0.747839     -0.220452
5   2      0.08981      0.25627      6.77575         0.778777      0.368770     -0.572886
6   2      1.63382      1.88064      8.61603        -0.207966      0.177657     -0.559054
7   2     13.05083      0.42371      9.89101         0.394329     -1.346981      0.035449
8   2      1.24207      1.93990     11.84739         0.320548     -0.689910     -1.499647
9   2     12.92729      3.24592      0.24697        -0.051318      0.867118     -0.285515
10   2      1.46377      4.83727      1.55562         1.182041      0.278599     -0.100833
11   2     13.15245      3.32390      3.25781        -0.224221     -0.203988      0.429706
12   2      2.14110      4.70866      4.63053        -0.458450      0.547476     -0.071388
13   2      0.47408      3.59903      6.61919        -0.755904     -0.317151     -0.032261
14   2      1.89268      5.05865      8.49341         0.140434      0.147583      0.524601
15   2     13.07689      3.66591      9.92151         0.903591     -0.119033     -0.321218
16   2      1.64024      4.89583     11.98809        -0.067233     -0.035860     -0.182239
17   2     13.14029      6.80467      0.14105        -0.286584     -1.027001     -0.589832
18   2      1.58612      8.13243      1.73266         0.756729      0.819307     -0.280150
19   2      0.24590      6.44368      3.37414        -0.530395      0.301916      0.497970
20   2      1.89579      8.37224      4.91967        -0.921868     -0.204838     -1.218948
21   2      0.53697      6.51464      6.55405        -0.335668     -0.166076     -0.362518
22   2      1.72590      8.03787      8.55894         0.530955     -0.700886      0.004299
23   2      0.07540      6.53756     10.38821        -0.026451      0.097163     -0.389270
24   2      1.55590      8.39312     11.96029        -0.411444     -0.187546     -0.206378
25   2     12.91819     10.17091     13.19715         0.271715      0.133997      0.630609
26   2      1.39750     11.58319      1.97071        -0.129975     -0.055190     -1.058210
27   2     13.08982      9.62311      3.10084         0.292748      0.520508      0.944643
28   2      1.83462     11.56199      4.92909        -0.478867     -0.048258      0.107753
29   2      0.24052      9.66156      6.90978         0.285703      0.571411     -1.019807
30   2      1.32235     11.73099      8.60819         0.480946     -0.191392     -0.404546
31   2     13.15185      9.75380      9.99429         0.852897      1.005429      0.810221
32   2      1.65236     11.65509     11.65029        -1.597470     -0.013583      1.054158
33   2      2.95840      0.18316      0.20380         0.201128     -1.607500     -0.726734
34   2      5.29153      1.33429      1.10897        -0.181632      0.010155      1.210507
35   2      3.41265     13.19606      3.10799        -0.216856      0.502289     -0.272342
36   2      4.90037      1.31794      5.15769         0.275917      0.914416     -0.126182
37   2      3.09551      0.05227      6.77269        -0.331490     -0.278974      0.692114
38   2      4.94987      1.54797      8.70177         0.736588     -0.902858     -0.336702
39   2      3.01577      0.05502     10.12668        -0.334911      1.103740     -0.176709
40   2      4.97417      1.28056     11.63109         0.541829      0.354930      0.122320
41   2      3.32280      2.99233     13.12411         1.252520      1.357203      0.640433
42   2      5.39697      4.75214      1.64274        -1.623620     -0.526051     -1.491680
43   2      3.77353      3.04951      3.11810         0.347644     -0.228297     -0.759050
44   2      4.94495      4.87505      4.89487         0.690663     -0.879345     -0.385569
45   2      3.50676      3.13374      7.06607         0.007006      0.371051     -1.102631
46   2      4.74276      5.05384      8.49810         0.242809      0.890107     -0.533445
47   2      3.43131      3.20486     10.25920        -0.183075      0.868035      0.520939
48   2      5.37986      5.14915     11.83589        -1.297847     -1.676778     -0.315249
49   2      3.38699      6.75753      0.05400         0.316944     -0.643759      0.174563
50   2      5.24996      8.39905      1.34902        -0.070527      0.146914     -0.283582
51   2      3.57965      6.66168      2.96555        -0.635969     -0.719835     -0.204301
52   2      4.82563      8.48345      4.61402         0.156202     -0.521895      1.736865
53   2      3.51837      6.60725      6.25217        -0.426786      0.403023      1.531780
54   2      4.88895      8.16778      8.47202        -0.933136      0.249217     -0.282702
55   2      3.41401      6.54708     10.48895        -0.328938      0.446490     -0.394365
56   2      5.02872      8.65380     11.70429         0.335771     -0.422446     -0.051049
57   2      3.22531     10.01483      0.10710        -0.212541      0.306997      0.680277
58   2      5.18915     11.65239      1.32629        -0.849375     -0.137049     -0.059035
59   2      3.41567     10.05114      3.10073        -0.710401      0.242372     -1.287323
60   2      4.66915     11.57549      5.01871        -0.078451     -0.701409      1.021412
61   2      3.10345      9.85076      6.75142         0.763500      0.309542      0.894591
62   2      4.39605     11.57949      8.58513         0.880303     -0.253521     -0.497972
63   2      2.95713      9.83242     10.14399         0.533252     -0.289854     -0.520062
64   2      4.60195     11.64009     11.53149         1.062379     -0.220523      0.630720
65   2      7.19230     12.97509     13.06819         0.080405      0.399641     -0.358038
66   2      8.15321      1.37274      1.74581         1.302965     -0.961267      0.474221
67   2      6.28773     12.90089      3.43936         1.754968      0.669293     -0.431464
68   2      7.77589      1.41511      5.25508         0.603139     -0.387246     -0.554273
69   2      6.29438     12.92299      6.90808         0.047159     -0.203272      0.262742
70   2      8.00385      1.55296      8.05704         0.180634      0.234277      0.586555
71   2      6.80664     13.07719     10.23798        -0.584807     -1.287580     -1.226079
72   2      8.17510      1.80603     11.16639         1.290171      0.520458      0.391694
73   2      7.01963      3.07103     13.25182        -1.357864      0.858950     -0.569131
74   2      8.04027      5.29068      1.53286         1.579721     -0.944414      0.395624
75   2      6.75347      3.02287      3.26767        -0.557725      0.485818      0.687846
76   2      8.10097      5.20069      4.73762        -0.113842     -1.165463      0.245458
77   2      6.51449      3.38653      6.62611        -1.254648     -0.408440     -0.309047
78   2      8.00264      5.14526      7.82601         0.136679      0.320356      1.663609
79   2      6.56654      3.54032      9.76330         0.302013     -0.179514      0.161862
80   2      8.43689      4.87130     11.37759        -0.311536      0.650730      0.019686
81   2      6.98694      6.81335     12.87664         0.509874      1.586077      0.238114
82   2      8.31380      8.08940      1.78688        -0.117417      0.909052     -0.172053
83   2      6.38612      6.60652      3.22268         0.081805      1.232573      0.498900
84   2      8.15787      8.24617      4.89494         1.210391      1.509512     -0.829807
85   2      6.47044      6.90005      6.27157        -1.476488     -0.575310      1.440142
86   2      8.16441      8.56392      7.98478         0.546931     -0.498899      0.428372
87   2      6.69328      6.69494      9.75461         0.738218      0.009720      0.754984
88   2      8.54598      8.51645     11.29579        -0.289131     -0.376600     -0.600112
89   2      7.03418     10.25025     13.22959        -0.471143     -1.048282     -0.367716
90   2      8.68154     11.59979      1.90719        -0.536775      0.202867      0.253626
91   2      6.60593      9.83842      3.26511         0.933002      1.482870     -0.546414
92   2      8.27771     11.19959      5.23995        -0.036874      0.084764     -0.198869
93   2      6.20357     10.02525      6.84635        -0.306294      0.267994     -0.353728
94   2      8.46660     11.64459      8.22357        -0.709305     -0.162005     -0.271196
95   2      6.63150     10.02876      9.90061        -0.120710      0.475060     -0.141946
96   2      8.87722     11.44689     11.33839        -0.723787      0.544113     -0.802443
97   2     10.17874      0.09090     13.07169        -0.780605      0.000373      0.237341
98   2     11.16259      1.80510      1.64185        -0.118707     -0.679705      1.534971
99   2      9.78744     13.21219      3.84673         0.325246      0.284966     -0.994941
100   2     11.70569      1.91353      5.20637         0.140774     -0.083207     -0.330984
101   2      9.96653      0.06104      6.47458         0.291931     -0.120151      1.009199
102   2     11.63699      1.95597      8.13542         0.201045      0.088347     -0.790847
103   2      9.94301      0.27245      9.56936         0.476760     -0.197356      0.546008
104   2     11.62949      1.91203     11.51029        -1.411763      0.114014      0.467887
105   2      9.64501      3.42059      0.09337         0.694823     -0.258230     -0.456167
106   2     11.32159      4.94667      1.63582         0.530214     -0.249596      0.849610
107   2      9.63194      3.16703      3.70791         0.291102     -0.237431     -0.336054
108   2     11.75409      5.02327      4.97584        -0.219864     -0.402231      0.349699
109   2      9.84161      3.52082      6.63320        -0.129405     -0.315015     -0.516126
110   2     11.65079      5.21222      8.08791         0.416976      0.095775     -0.472767
111   2      9.99842      3.50082      9.57952        -0.795889     -0.104498      0.116710
112   2     11.39969      4.93514     11.60519        -0.142505      0.256484      0.545552
113   2     10.13132      6.73282     13.27064        -2.022290     -1.091142     -1.378291
114   2     11.36649      8.14106      1.69640         1.498249      1.131148     -0.154482
115   2     10.04674      6.61369      3.36956        -0.558727     -0.590628      0.772183
116   2     11.74379      7.92302      5.19706         0.583706      0.595382     -0.247085
117   2      9.68708      6.61767      6.45058         1.245656      0.505897      0.541971
118   2     11.96439      8.04611      8.35559        -0.642988     -1.561404     -0.608099
119   2      9.92268      6.67468      9.70226        -0.440974      0.034683     -0.026099
120   2     11.45149      8.38054     11.61379         0.087789     -0.067766     -0.432345
121   2      9.74345      9.88528      0.03250         1.489387     -0.187416      0.977684
122   2     11.53709     11.87069      1.93132         0.237655      0.070081      0.021135
123   2     10.27685      9.77761      3.45087        -0.896302      0.795574      1.195010
124   2     12.32709     11.53059      5.11785        -0.942582     -0.356534     -0.183040
125   2     10.42581      9.91651      6.69531        -0.971105     -0.914693     -2.021872
126   2     11.80989     11.67399      8.02330         0.956709      1.968533      0.354938
127   2     10.35629     10.02038      9.36043        -1.209055     -1.045179      2.235140
128   2     11.59899     11.81269     11.38599         0.783002     -0.137421     -0.295796
