ITEM: TIMESTEP
0
ITEM: NUMBER OF ATOMS
128
ITEM: BOX BOUNDS pp pp pp
0.0 13.2781843431999995 
0.0 13.2781843431999995
0.0 13.2781843431999995
ITEM: ATOMS id type x y z fx fy fz
1   2      0.39487     13.23785     13.11902        -0.585153      0.231920      0.895335
2   2      2.00686      1.55669      1.66232         0.330016      0.413670     -0.281669
3   2      0.07289      0.22063      3.04772        -0.317695     -0.701854     -0.141669
4   2      1.53201      1.62819      4.93385         0.318845     -0.244751      0.894612
5   2      0.32160     13.23638      6.92446        -0.357465      0.212545     -0.359209
6   2      1.82929      1.63519      8.58679        -0.005369      0.344596     -0.572907
7   2      0.12909     12.97299      9.91600        -0.263682      0.237812      0.160094
8   2      1.99890      1.24560     11.26929        -1.484038      0.844551      0.256554
9   2      0.18468      2.88371     13.05629         0.280184      0.146191      0.645118
10   2      1.56411      4.73493      1.57940         0.177022      0.567031     -0.671456
11   2      0.06180      3.03998      3.18237        -0.670275      0.046454     -0.821903
12   2      1.44365      4.51775      5.24861        -0.987967      0.513246      1.090596
13   2     12.82129      3.08581      7.42719         1.355938      0.090265     -0.226670
14   2      1.41898      5.05322      8.47544        -0.145998     -1.188670     -0.133144
15   2     13.24059      2.92771     10.32556         0.160796      0.189912     -1.072145
16   2      1.19118      5.51165     11.77039         0.797729     -0.495193     -0.556652
17   2      0.00584      6.92807      0.38089        -0.490374      0.041441     -0.274325
18   2      1.77686      8.22338      1.90827        -0.182703     -0.157610      0.727800
19   2     13.22859      6.04753      3.29106        -0.558662      0.515414     -0.102882
20   2      1.38665      7.72456      4.87417         0.348141      1.328205     -0.856479
21   2     13.13559      6.45749      6.65932        -0.911661     -1.957039     -0.659773
22   2      1.25251      8.36089      7.56916         1.240105      1.736951      1.170114
23   2      0.08260      7.10677      9.56533        -1.093123      0.184826      1.677846
24   2      1.50307      8.67111     11.58379        -0.350821     -0.357724      0.424827
25   2      0.29940     10.08948      0.32869         0.043964      0.393393      0.054324
26   2      2.20344     11.94309      1.62941        -0.558351     -0.313719      0.100004
27   2      0.15674     10.28307      3.09356         0.231974     -0.031663      1.028082
28   2      2.00575     11.73739      4.98466        -1.353582      0.129846     -0.502326
29   2     13.13099     10.44580      6.40851        -0.214030     -0.097239     -0.445194
30   2      2.10765     11.43149      8.15884        -2.011590      2.921988     -2.368258
31   2     13.15129     10.21770      9.53071         0.605620     -0.959608      0.613257
32   2      2.01816     11.64589     11.58739        -0.059147     -1.045923     -0.207780
33   2      3.68612      0.05800     12.99484         0.173911     -1.564156      1.934633
34   2      5.18863      1.75998      1.43554        -0.938550     -0.049667      0.805988
35   2      3.61613      0.18588      3.52539         0.097356      0.060534     -0.492211
36   2      4.87186      2.15481      5.08010         0.024557     -0.760562      0.813393
37   2      3.38517      0.22931      6.55656        -0.371235      0.902761      0.942142
38   2      5.12681      1.62104      8.40748        -0.056479      0.984963      0.521068
39   2      3.78519     13.05789      9.74806        -0.601051     -0.447290      0.422187
40   2      4.54570      1.83247     11.39449         2.822253      1.632967     -1.056784
41   2      3.21005      3.40803     13.19849        -0.105010      0.077820     -0.413810
42   2      5.02707      4.92271      1.31806        -0.555035      1.109542      1.033509
43   2      3.13511      3.56718      3.51395         1.104031     -0.882943     -1.219309
44   2      5.00417      5.07162      5.38185        -0.294774     -1.691358     -1.044390
45   2      3.33488      3.29626      6.98521        -0.508272      0.369747      0.360752
46   2      4.97704      5.15550      8.51153        -0.622859      0.725838     -0.216039
47   2      3.07459      3.96014     10.30620         0.042357     -0.413932      0.012263
48   2      4.93767      5.77166     11.41529        -0.020786     -1.532237     -0.308807
49   2      3.17979      6.87361      0.02960        -0.142149     -0.849167      0.222003
50   2      5.07625      8.01588      1.88761        -0.500925     -0.131745     -0.097566
51   2      3.32891      6.29934      3.58181         0.135055      0.571680     -0.942230
52   2      5.20442      7.84460      5.23988        -2.008941      0.757849     -0.273827
53   2      3.10264      6.33015      6.74806        -0.080798      0.936190      0.233778
54   2      5.08898      8.28990      8.15380        -0.713510      0.080469     -0.207802
55   2      2.98757      7.01865      9.89005         0.126847     -0.470755     -0.485151
56   2      4.80910      8.44281     11.71759         0.869222     -0.407388     -1.773648
57   2      3.50907      9.82594      0.14949        -1.250905      0.854817      1.060742
58   2      5.00788     11.37249      1.89719         0.793793      1.217993     -0.064178
59   2      3.28379      9.90880      3.31106         0.116352     -0.485967      1.088626
60   2      4.91692     11.64379      5.42568         0.128259     -0.684594     -1.604740
61   2      3.17507      9.66026      6.29578         0.950273     -0.637829     -0.364466
62   2      5.03516     11.32969      8.16763        -0.142549     -0.904595     -0.232493
63   2      3.00327      9.76585      9.62609         2.043148     -2.334983      2.046413
64   2      5.03379     11.12139     11.38809        -0.600985      1.395439      0.359014
65   2      6.52442      0.02758     13.10679        -0.285818     -0.200176      0.224766
66   2      8.02161      1.99715      1.61237         0.401307     -0.525683     -0.251686
67   2      6.39339      0.23171      3.74505        -0.884732      0.625362     -0.457597
68   2      8.01042      1.82170      5.21452         1.013987      0.905013     -0.227846
69   2      6.53523      0.13220      6.71655         0.612717     -0.548951      0.013458
70   2      8.27851      1.60865      8.45856        -0.352942     -0.316935      0.478112
71   2      6.89008     12.76219      9.51666        -0.417035      1.106057      0.790155
72   2      7.96874      1.64330     11.39159         0.336557      0.050854     -0.243965
73   2      6.44050      3.44475     12.95079         0.623256     -0.197166     -0.727233
74   2      8.20298      5.05352      1.60969        -0.596607     -0.098086     -1.231862
75   2      6.35408      3.44881      3.36307         0.860204      0.761197     -0.436680
76   2      8.62739      4.82937      5.25896        -1.254699     -1.176087     -1.006309
77   2      6.63995      3.47704      7.02511         0.308044     -0.124022     -0.208485
78   2      8.47692      4.98341      8.54242         0.264918      0.438752      0.033197
79   2      6.44434      3.63577     10.11089         0.454941     -0.526873      0.294742
80   2      8.34093      5.19402     11.77009        -0.698619      0.982530     -1.494092
81   2      6.63452      6.89439     13.11466         0.196210     -0.284177      0.703861
82   2      8.26054      8.10267      1.62688         0.435698      0.427431      0.265220
83   2      6.76733      6.36079      3.47888        -0.297019     -0.249159     -0.049938
84   2      8.52048      8.15184      4.65703        -0.057842      0.226925      0.899229
85   2      6.85727      6.42257      6.62078         1.849925      0.329798      1.759657
86   2      8.69671      8.21712      7.91946        -0.155735      0.046219     -0.363677
87   2      6.92321      7.02558      9.68911         0.096295     -0.587077      0.640788
88   2      8.40077      8.42925     11.66039         0.347045     -0.336305      0.220394
89   2      6.63093      9.99605      0.16783         0.150707     -0.511232      0.484681
90   2      7.85905     12.11829      2.09320         0.176176     -0.463442     -1.471323
91   2      6.40278      9.58152      3.67718         0.258864      1.244165     -1.038374
92   2      7.96880     11.62049      4.88159         0.707927      0.219495      0.191410
93   2      6.73337      9.87176      6.49559         0.387284     -0.923232      0.561683
94   2      8.55859     11.20419      8.13008         0.738713     -0.181626     -0.661393
95   2      6.84043      9.87028      9.90739         0.110815     -0.894307     -0.999946
96   2      8.02946     11.55839     11.68919         0.178545      0.006780     -0.521425
97   2      9.50921      0.02188     13.22539        -0.046718      0.047415      0.916651
98   2     11.45839      1.61993      1.38106        -0.205372     -0.026955      0.178004
99   2      9.77477      0.39379      3.45857        -0.153925      0.611964     -0.451710
100   2     11.57249      1.67611      5.42112         0.856504     -1.097280     -1.281959
101   2      9.86474     13.10304      6.41565        -1.320762     -0.091364      0.267354
102   2     11.24239      1.11201      8.48594         0.691762      1.410302      0.226234
103   2     10.00736     12.95109     10.33574        -1.860831     -0.862082     -0.244198
104   2     11.40169      1.33451     11.74099         1.071353      0.926885      0.574864
105   2      9.88696      3.57181     13.00189        -0.542689     -2.348774      0.955474
106   2     11.55369      4.89259      1.32717         1.264022     -0.485443      1.042259
107   2      9.86019      3.49056      3.03031         0.307095     -1.179594      0.575332
108   2     11.70659      4.30008      4.92004         0.237473      0.600006      0.018869
109   2      9.97223      3.07482      7.03777        -0.345205      1.206453     -0.336246
110   2     11.52309      5.07818      8.71719         0.499512     -0.130992      0.088124
111   2     10.03382      3.24786     10.07793        -0.392028     -0.384361      0.442364
112   2     11.82709      4.81323     11.70369         0.172266      0.991759     -0.621561
113   2     10.28894      6.73463     13.18439        -0.650700      0.888318     -0.569947
114   2     11.53159      8.41395      1.83295        -0.235079      0.519266      0.128378
115   2      9.96142      6.37832      3.26067         0.494167     -0.411992     -0.490842
116   2     11.58269      8.03470      4.64674         1.097983      0.408134     -0.043028
117   2     10.50104      6.16091      6.40348        -0.818965      1.274179      0.952886
118   2     11.44719      8.45684      7.80465         0.391903      0.298997     -0.144741
119   2     10.34247      6.98418     10.13755        -0.431534     -0.095133      0.463344
120   2     11.90869      8.80033     11.77999         0.078968     -0.633699      0.356293
121   2      9.66232     10.22147      0.04451         0.490804     -0.552761      0.948039
122   2     11.46069     11.68249      1.72042         0.724871      1.240395     -0.795723
123   2      9.66523     10.29393      2.97895        -0.394736     -1.214878      0.546936
124   2     11.65329     12.10139      4.65615         0.957037     -0.462476     -0.262867
125   2     10.18628     10.06533      5.73578        -0.241378      0.219210      1.226657
126   2     11.40089     11.79909      8.31813        -0.065061     -1.527105     -1.062051
127   2     10.18209      9.77328      9.95113        -0.434277      0.833132     -0.014276
128   2     11.73879     11.62939     12.06119         0.093204     -0.166277     -0.301615
