ITEM: TIMESTEP
0
ITEM: NUMBER OF ATOMS
128
ITEM: BOX BOUNDS pp pp pp
0.0 13.2781843431999995 
0.0 13.2781843431999995
0.0 13.2781843431999995
ITEM: ATOMS id type x y z fx fy fz
1   2     13.27098      0.25118     13.18439         1.432059      0.219940     -0.171909
2   2      1.82851      1.23465      1.97497        -0.830279      1.797679      0.248141
3   2     13.07549     13.22472      3.24810         0.895066      0.943154      1.475294
4   2      1.67429      1.45492      5.03214         0.639180     -0.387926     -0.706758
5   2     13.14979      0.31250      6.78886         0.055505     -1.927621     -0.660030
6   2      2.05501      1.90512      7.84016         1.389264     -1.470226      1.668342
7   2      0.28676      0.35591      9.63223         0.208009     -2.055550      0.958979
8   2      1.92364      2.00304     11.55119        -1.570059     -1.817511      0.422921
9   2     13.25978      3.14954     13.25043         0.516591      0.293631      0.041036
10   2      1.39234      4.99644      1.84235        -0.343580     -0.975005     -0.367523
11   2     13.17559      2.99525      3.45574         0.012767      0.223285     -0.321451
12   2      1.74065      4.87798      4.86675        -2.418054     -1.118596     -0.366242
13   2      0.01780      2.93798      6.67709        -1.804218      2.170967     -1.156769
14   2      1.67213      4.75954      7.89908        -0.638724      0.609467      0.564022
15   2     13.16342      2.85406      9.61100         0.527587      2.546077      0.683023
16   2      1.48623      4.90399     11.66199         0.787402     -1.506428     -1.277695
17   2     13.23439      6.48281     13.02106        -0.371029      0.625337      1.771903
18   2      1.51348      8.23408      1.61964         0.274693     -0.704697      0.245745
19   2     12.98419      6.52432      3.50596         1.397452     -0.681167      1.293429
20   2      1.61192      8.57912      4.85819        -2.053807     -1.707734     -0.115933
21   2     13.02257      6.76592      6.61175         0.545710     -0.098036     -0.162813
22   2      1.41517      8.29692      8.18761         1.567764      0.083165      0.020463
23   2      0.15710      6.62175      9.97166         0.235853     -0.656414     -0.676061
24   2      1.67436      8.29987     11.43769         0.577918     -0.148823      0.029966
25   2      0.10528     10.01515      0.18280         0.189068      1.128114      0.028134
26   2      1.63525     11.64109      1.73926        -0.418626      1.016302     -1.125973
27   2     13.15509     10.14346      3.33990         0.036586      0.571907      0.596026
28   2      1.61214     11.74479      5.27123        -0.570673      0.198120     -0.323211
29   2     13.25629     10.09840      6.94792        -0.195277      0.806845     -1.403274
30   2      1.86388     11.97529      8.10198        -0.071478     -0.489844      0.126096
31   2      0.11582     10.55047     10.02818         0.035150     -0.659148     -1.075077
32   2      1.68319     11.88869     11.67439         0.545622      0.971733      0.826159
33   2      3.49785      0.19878      0.29890         0.530356     -0.845664     -1.280626
34   2      5.37009      1.75099      1.76092        -0.727781      0.439218      0.650309
35   2      3.44030     12.95099      3.49836        -0.016189      1.104016      0.329005
36   2      5.50888      1.54096      4.76321        -2.147930      1.747237     -0.987091
37   2      3.84072     13.16789      6.69028        -0.425545      0.905997      0.114248
38   2      5.10142      2.10793      8.36760         0.210337     -1.320049     -0.807893
39   2      3.48421      0.16167      9.94438        -0.398004     -0.610044     -0.454695
40   2      5.09486      1.75656     11.34779         0.261391     -0.459591      1.362512
41   2      3.55183      3.07795      0.04680         0.202434      0.773179      1.037217
42   2      4.92704      4.95934      1.95503        -0.035285     -0.570180     -0.860811
43   2      3.39641      3.15240      3.61758         0.365881     -0.591305     -1.078244
44   2      5.31301      5.03181      4.70441        -1.878534      0.830239      1.098267
45   2      3.63980      3.48482      6.41478         0.975131     -0.012067     -0.683309
46   2      5.01831      4.97848      8.40928        -0.357711      0.968762     -0.140459
47   2      3.33052      3.48726     10.01063        -0.003695      0.980597     -0.948781
48   2      4.85967      5.09300     11.70279         1.187174     -0.666785     -0.776024
49   2      3.14181      6.14510      0.01020        -0.389575      1.408025      1.501010
50   2      4.56406      8.07967      1.73025        -0.615486     -0.292505      0.462856
51   2      3.05799      6.56853      3.24412        -0.024721      0.097227      0.720715
52   2      4.69026      8.29892      4.81379         1.040371     -0.258668     -1.196287
53   2      3.12437      6.52476      6.23536         0.943794      1.068712      1.481606
54   2      4.74654      8.56680      8.41186        -0.459404     -1.020632      0.373490
55   2      3.08172      6.55425      9.44314        -0.172885     -0.221177      0.563044
56   2      4.60708      7.80763     11.36779        -0.416562      0.750113      0.489121
57   2      3.02086      9.85290     13.15779         0.659727      0.360064      0.420910
58   2      5.05905     11.52209      1.85532        -0.481300     -0.345687     -0.661557
59   2      3.05282     10.07800      3.23555         1.179043     -0.447827      0.141584
60   2      5.01542     11.41659      5.01493         0.975248     -0.501811     -0.480966
61   2      3.25757      9.80732      6.38861         0.062179      1.236844      2.383312
62   2      5.12939     11.30829      8.54218        -0.249119      0.276150     -0.755534
63   2      3.04687     10.25630      9.92957         0.058613     -0.643753      0.325105
64   2      4.94762     11.50799     11.88629        -1.088087     -0.089230     -1.177584
65   2      6.42480     13.21040     13.20768         0.396254      0.682291     -0.044266
66   2      8.18539      1.51607      1.35944         0.322692      0.722174      0.881520
67   2      6.82767     13.09639      3.18400         0.354489     -0.453281      0.021313
68   2      8.45434      1.38904      4.75189        -0.488973      0.841562      0.266215
69   2      6.54662      0.14270      6.52488         0.992171     -0.828730      2.863122
70   2      8.12556      1.92735      8.07879        -0.801251     -0.302450      0.444779
71   2      6.50573     13.04249      9.94504         0.777405      1.028735      0.097843
72   2      8.31851      1.52646     11.70629        -0.801803      0.476716     -0.210140
73   2      6.68339      3.55541      0.09767        -0.512607     -0.316503     -0.442126
74   2      8.46477      5.02976      1.55427        -0.603929      0.338648      0.443642
75   2      6.96260      3.49033      3.56155         1.567646     -0.825228     -1.348470
76   2      8.80119      5.35731      4.76172        -1.457392     -1.250810     -0.277399
77   2      6.93879      4.17779      6.74850         0.512267     -1.121702     -0.882203
78   2      8.61953      5.12548      8.58469        -0.445683      0.109599      0.923365
79   2      6.57952      3.55451     10.10474         1.656206      0.263407      0.018335
80   2      8.11870      5.19233     11.69859         0.771384     -0.041806     -0.346995
81   2      6.56077      6.71103      0.17115        -0.099473     -0.062573      0.029898
82   2      8.36736      8.69609      1.50132         0.665689     -1.623838      0.335018
83   2      6.66661      6.81503      3.17931         0.964022      0.455530     -0.000412
84   2      8.54202      8.34036      5.05735        -1.010860      0.085431      0.094001
85   2      6.17328      6.83194      6.59762         0.679676      0.409362      0.489538
86   2      8.39529      8.12193      8.39271         0.670358      1.166370     -1.636239
87   2      6.86068      6.90795      9.97104        -1.426945     -1.870934      0.770244
88   2      8.35718      8.68830     12.12359         0.120416     -0.962982     -0.240955
89   2      5.91468      9.50552      0.13560         1.130169      0.626775     -1.213744
90   2      7.95935     11.35999      1.35224         0.809262      0.519568     -0.198692
91   2      6.73092      9.73228      3.26947        -0.753942      0.275957      1.383240
92   2      8.00037     11.57429      5.30324         0.852221     -1.119698     -0.797860
93   2      6.46944      9.67138      6.67658         0.726634     -0.157789     -0.539174
94   2      8.12711     11.29329      8.24682         0.051027      0.268275      0.622506
95   2      6.57919      9.53356     10.36357        -0.529754      1.436677     -0.713648
96   2      8.08163     11.49289     11.66319         0.533833      0.114602      0.047649
97   2      9.86705     13.16659      0.05750        -1.170294     -0.388962     -1.394345
98   2     11.39359      1.73802      1.32857         0.179508      0.016154      1.147067
99   2      9.89831     12.78189      3.32046        -1.115181      0.065193     -0.267552
100   2     11.20489      1.41842      4.80784         0.933662      0.556068      0.494903
101   2      9.67013     13.26959      6.76849        -0.175215     -0.780749     -0.038512
102   2     11.27349      1.56601      8.22881        -0.149048     -0.507175      0.362902
103   2      9.72387     13.18789     10.00801        -0.258073     -0.392398     -0.484305
104   2     11.49179      1.55077     11.54349        -0.062910      0.209620     -0.123580
105   2      9.89193      3.49592     13.13019         0.240002     -0.061306     -0.790606
106   2     11.74139      4.87129      1.58080        -0.227036     -0.209742     -0.034586
107   2      9.90527      3.20744      3.13138        -0.003502      0.350855      0.071387
108   2     11.76749      4.80220      5.22300        -0.162426     -0.512898     -0.530188
109   2      9.99730      3.34552      6.65969        -0.566465      0.352896     -0.623322
110   2     11.61249      4.96817      8.49785         0.301965     -0.086734     -0.586292
111   2      9.85670      3.10853      9.90639        -0.213717      0.422088      1.078144
112   2     11.88039      4.84290     11.25069        -1.029503     -0.896927      0.807228
113   2     10.05505      6.67554     13.08709         0.629796      0.068047      0.312316
114   2     11.94409      8.22245      1.93212        -0.437882      0.998436     -2.348747
115   2     10.05206      6.71940      2.91294        -0.288390      0.296219     -0.053171
116   2     11.24879      8.25969      4.99055         1.323127      0.101418      0.104489
117   2     10.00755      6.46094      6.76092         0.933286      1.266858      0.573349
118   2     11.96949      8.44101      8.64724        -1.004609      0.024985      0.067583
119   2     10.20167      6.91147     10.18815        -0.180855     -0.484797      0.402141
120   2     12.19029      8.54435     11.69079        -1.472977     -0.293363     -1.201220
121   2     10.50779      9.94563      0.10921        -0.499371      0.140592      0.090223
122   2     11.67429     12.04509      1.48644         0.410018     -2.292004     -0.163500
123   2     10.11223     10.01428      3.23861        -0.183851      0.447789     -0.076126
124   2     11.67669     11.76759      5.16895        -0.085327     -0.720997      0.589941
125   2     10.18696      9.80713      7.03758        -0.546971      0.037603     -0.688877
126   2     11.50179     11.79029      8.30083         0.031977      0.348366      0.716099
127   2      9.96827      9.70753     10.21342         0.280712      1.207834     -0.405516
128   2     11.69139     11.84219     11.62799        -0.398970     -0.016724     -0.100641
