ITEM: TIMESTEP
0
ITEM: NUMBER OF ATOMS
128
ITEM: BOX BOUNDS pp pp pp
0.0 13.2781843431999995 
0.0 13.2781843431999995
0.0 13.2781843431999995
ITEM: ATOMS id type x y z fx fy fz
1   2     12.86519     13.10959     13.24917        -0.155419      0.011751      0.300052
2   2      1.80286      1.49573      1.99996         0.575673      1.843943     -0.216387
3   2      0.06708     13.23879      3.00157        -1.200779     -1.103334     -0.169304
4   2      2.19945      1.84399      5.57883        -0.372420     -1.664338      0.103459
5   2      0.01592      0.35170      6.24671         0.143194     -0.567717      0.490640
6   2      1.50146      1.55234      8.23061         0.283568      0.332596      0.973678
7   2     12.96559     13.11537      9.58860         1.238978      2.185807      1.159993
8   2      1.70465      1.44870     11.75969        -1.241072      1.335008     -0.808516
9   2      0.32508      3.04749      0.15478        -0.181432      0.132691      0.748820
10   2      2.29009      4.56989      2.21107        -0.643256     -0.005333     -0.157206
11   2      0.12233      3.52246      3.20427        -0.182064     -1.140022      0.766810
12   2      2.07748      4.41724      4.92132        -0.610683      1.212948     -0.286559
13   2      0.19100      3.37746      6.71541        -0.953887     -0.002331     -0.668191
14   2      1.56383      4.97876      8.46444         1.076789     -0.001425     -0.327931
15   2      0.28210      3.51210     10.33303         0.481953     -0.552296     -1.036302
16   2      1.66261      5.13748     12.02159         0.027522     -0.011925     -0.077095
17   2     13.23129      6.83730      0.55116        -0.570856     -0.262085      1.311409
18   2      2.48530      8.26153      1.43994        -1.421302      0.089116      0.769901
19   2     12.97509      6.63224      3.58162         0.504478      0.284699     -1.345222
20   2      1.88565      8.32759      4.61254        -0.842006     -0.096234     -0.121281
21   2      0.34516      6.39213      6.26450         1.254366     -0.328711     -1.369010
22   2      1.55015      8.44571      7.77188         0.980155     -0.363939      0.100011
23   2      0.03409      6.59880      9.95922        -0.004895     -0.799192      1.155631
24   2      1.35435      8.00677     12.00349         1.330772      0.829540      0.111315
25   2     12.89749     10.12817     13.08132         0.473567     -1.096433      1.492014
26   2      1.52742     11.24549      1.75103        -0.438889     -0.388189     -0.755575
27   2     12.86329      9.54590      2.68654         2.034138      0.437557      1.991057
28   2      1.67031     11.77689      4.37249         0.756103     -0.393752      2.034914
29   2      0.17820     10.20527      6.17208        -0.225405     -0.326789     -1.030448
30   2      1.09549     11.23409      8.49942         1.373883     -0.755669     -0.733773
31   2      0.02710      9.18199      9.99491        -0.352562      1.401847      0.144399
32   2      1.28725     11.63739     11.64429        -0.563477     -0.955061      0.337375
33   2      2.74681     13.10019      0.19883         1.415367     -0.952719      0.384508
34   2      4.68763      1.54795      1.55185         2.319960      0.747157     -3.109390
35   2      3.88492     13.05949      3.10336        -1.037943     -1.608913      1.940068
36   2      5.14778      1.67808      5.64621         0.084171     -0.359242     -0.191369
37   2      3.08004     12.70969      6.86548        -0.827090      0.433570      0.437071
38   2      4.52881      1.37802      8.48357         0.553480     -1.401043     -0.516483
39   2      2.60156     13.00019      9.93615         1.638857      0.382979     -1.444725
40   2      4.43315      1.18541     11.54059         0.744728      0.708736      0.261762
41   2      3.46696      3.29573     13.21129        -0.809827     -0.501381     -1.378623
42   2      5.04295      4.55646      1.72158         3.179315     -1.296697      2.477993
43   2      3.80436      2.62786      3.69527        -0.309349      1.580978     -0.766178
44   2      5.08720      4.78310      5.29146         1.681401      0.439333     -2.125154
45   2      3.64071      3.68777      7.13237        -0.631029     -0.642722      1.284524
46   2      5.05528      5.72840      8.57574         0.411424     -0.331630     -0.615406
47   2      3.65494      3.27949      9.88403        -1.118519      1.924926      1.529192
48   2      4.86457      5.49098     11.61049         0.536409     -2.962953     -0.387264
49   2      3.56980      6.04121      0.47444        -1.761892      3.162346     -1.045652
50   2      5.36993      8.60624      1.74879        -0.654798     -0.781556      0.371098
51   2      3.74503      6.70229      3.35194        -0.113947     -0.932301      0.043932
52   2      5.23967      8.50675      4.62599         0.821171     -0.580246      1.448971
53   2      3.29427      6.35221      6.32646        -0.548958      2.199836      0.972682
54   2      4.28331      8.73158      7.99510         1.445960     -2.067944      1.830463
55   2      3.01232      6.71312     10.06413        -0.637036      0.772309     -0.575588
56   2      4.47584      8.14619     11.98299        -1.006919      0.330418      0.417792
57   2      3.26910     10.19761     13.12733        -1.198106     -0.054801      0.308081
58   2      5.23190     11.53849      1.23314        -0.466717      0.612377      0.073717
59   2      3.65146     10.18935      3.24554        -0.643852      0.286065     -0.278095
60   2      5.18237     11.95149      5.39565         0.160877     -0.134956     -1.382325
61   2      3.46850     10.07065      6.07460        -1.775475      0.752691     -1.064748
62   2      4.88091     11.50409      8.81541        -0.755985      1.251886     -1.298210
63   2      3.02016      9.87373     10.16757        -0.424784     -0.355204      0.170623
64   2      4.68218     11.72619     11.61029         0.742644      0.272934     -0.973908
65   2      6.61172     13.20833     12.87979         0.694548      1.103361      0.104938
66   2      8.28748      1.75430      1.22757         0.149991     -0.464868     -0.684601
67   2      6.78212      0.30869      2.94441        -1.083093     -0.376698      0.550272
68   2      8.11410      1.69556      5.42962        -1.057245      1.284299      0.638797
69   2      6.45565      0.03663      7.13598         2.095189     -0.209463      1.991353
70   2      8.80794      1.81571      8.49669        -1.728014     -0.137684      0.380369
71   2      6.70497      0.32706     10.12574        -0.064118     -0.385131     -0.800798
72   2      8.72689      1.78017     11.21179        -0.128131      0.468393      0.938492
73   2      6.42568      3.35406     12.91479        -0.135241     -0.737219      0.090274
74   2      8.36185      4.43152      1.66655        -1.363730      1.550213     -1.643733
75   2      6.72665      3.17581      3.52885        -0.497807     -0.396081     -0.207676
76   2      8.07863      5.07478      5.06284         0.992521     -1.081915      0.849003
77   2      6.53475      3.44327      7.20709         0.991157      0.041603      0.694214
78   2      8.17718      5.37356      8.54808        -1.443088     -0.870715      0.084029
79   2      6.58280      3.51761     10.07463        -0.403682     -0.646602     -0.460763
80   2      8.12570      5.05288     11.65799         0.408841      0.740969      0.244396
81   2      6.98154      6.80830      0.42714        -0.495404     -1.369336     -0.941779
82   2      8.20010      8.80461      1.59792         0.700810      0.653629      0.723475
83   2      6.73955      6.43255      3.30151        -1.104913     -0.155255     -1.351044
84   2      8.23644      8.33337      4.44457        -0.401232     -0.065439      0.435744
85   2      6.79095      6.93976      6.45685        -0.967186      0.295789      0.544455
86   2      8.42055      8.17022      8.35317        -0.913795      0.293842      0.575871
87   2      6.34820      7.21428     10.45715         2.322680      0.307865     -1.608953
88   2      8.57480      8.43250     11.59099        -0.708130     -0.359067     -0.334007
89   2      6.44206      9.73593     12.88729         0.940998      0.553316     -0.924169
90   2      8.14528     11.70149      1.33101         0.565011     -0.085753      0.057674
91   2      6.47549     10.63550      3.44477         1.494792      0.025823      0.130512
92   2      8.22640     11.89509      5.36874        -1.201743      0.543109      0.744484
93   2      6.70328      9.84792      7.02256        -0.362506      0.326286     -0.466123
94   2      8.38504     11.70879      8.40990        -0.630677     -0.728695     -0.459665
95   2      6.51008      9.91477      9.97528         0.119314     -1.536298     -0.326339
96   2      8.23714     11.31099     11.27899         0.688899      1.314574      0.176426
97   2      9.85337     13.12321     12.75989         0.497501      0.129967      0.287872
98   2     11.41989      1.47309      1.76904        -0.254040      0.057436     -1.059169
99   2      9.37275      0.39693      3.54413         1.278596     -0.731218     -0.934973
100   2     11.77349      1.53259      4.36615        -0.756947      1.484503      1.847497
101   2     10.02004      0.33441      6.62234         1.264921     -0.341371      0.109094
102   2     11.77679      2.07406      8.49385        -0.043879      0.151067     -0.033280
103   2     10.29447     13.05539      9.58226        -0.756708      0.877345      1.277468
104   2     11.89609      1.77040     11.45899        -0.547300     -0.891188     -0.185363
105   2     10.37077      3.12305     13.22869        -1.468309      0.048577     -0.834328
106   2     11.71149      4.68605      1.61476        -0.468583      1.221177      0.429548
107   2      9.69115      3.43536      3.55781         1.225347     -1.443905      1.097694
108   2     11.58799      4.74303      4.95343        -0.179905     -0.044704      0.642416
109   2      9.98411      3.59870      7.01117         0.107248      0.552250     -1.210036
110   2     11.97379      5.33193      8.06384        -0.968982     -2.075190      0.505214
111   2     10.12205      3.92957     10.09220         0.567002     -0.532114     -0.087633
112   2     12.04339      4.95324     12.01719        -0.614500      0.851806     -0.035892
113   2      9.79460      6.29417      0.23850         0.066404      0.026065     -0.046610
114   2     10.95403      8.62763      1.41668        -0.872555     -2.260013      0.239242
115   2      9.88820      6.58364      3.15993         0.528075     -0.396271     -0.041936
116   2     11.51589      8.25554      5.20846        -0.205035      0.266900     -1.643372
117   2      9.84326      6.45252      6.71878         0.308542      0.475435     -1.087316
118   2     12.10449      7.98627      7.74283        -0.858724      1.492365      1.048763
119   2     10.14665      6.65091      9.84482        -0.167323     -0.503910     -0.937790
120   2     11.19619      7.85295     11.76219         2.285094      1.219919      1.545235
121   2     10.07789     10.26915     12.95919        -0.615392      1.063356     -0.284815
122   2     11.12219     11.80759      1.95585         0.444333      0.426259     -0.794547
123   2      9.58409     10.49844      3.62137         0.402772     -0.812535     -0.748235
124   2     11.58169     11.93869      4.96053        -0.176040     -0.524980     -0.514814
125   2      9.56561      9.70611      6.35024         0.531589      0.506436      0.983611
126   2     11.70289     11.63779      7.78160        -0.617791     -0.910489     -1.213652
127   2     10.45259      9.65104      9.29787        -0.468885     -0.151697     -0.115057
128   2     11.75579     11.21439     10.99039        -0.529813      0.694912      0.362002
