ITEM: TIMESTEP
0
ITEM: NUMBER OF ATOMS
128
ITEM: BOX BOUNDS pp pp pp
0.0 13.2781843431999995 
0.0 13.2781843431999995
0.0 13.2781843431999995
ITEM: ATOMS id type x y z fx fy fz
1   2     13.05891     13.24744      0.04549        -0.005473     -0.215292     -0.435986
2   2      1.33739      1.65552      1.68774         0.845085      0.026235     -0.174932
3   2     13.21196     13.17571      3.21395        -0.358354     -0.510616      0.476596
4   2      1.31950      1.50017      5.14653         0.363617     -0.527187     -0.357591
5   2     12.88409     12.94341      6.71276        -0.171135      0.321824      0.043291
6   2      1.51696      1.95875      8.03819         0.445573     -1.305357      0.808130
7   2      0.00477      0.09973      9.91127        -0.049903     -0.561165      0.439227
8   2      1.38838      1.96590     11.65689        -0.512337     -0.683067      0.162859
9   2     13.24664      3.52633      0.06146        -0.748338     -0.790701      0.807954
10   2      1.86224      4.90047      1.68344        -1.086259      1.119855      1.270262
11   2      0.00993      3.24964      3.41468        -0.403559      0.987199      0.219270
12   2      1.79197      4.91469      4.77063        -0.478036     -0.380369      0.133866
13   2     13.04367      3.28125      6.58035        -0.264852      0.738257     -1.294935
14   2      1.46366      4.77058      8.09731         1.236759      1.423514     -0.949726
15   2     13.27418      3.69457     10.01182        -0.494737     -0.897506      0.673186
16   2      1.95518      4.79899     12.10209         0.447224      0.558174     -1.045359
17   2      0.35637      6.70155     13.16911         0.149038      0.380269      0.980709
18   2      1.71740      8.37224      1.85749         0.117261     -0.117599     -0.225444
19   2      0.03170      6.67624      3.47611         0.624676      0.521202      0.150147
20   2      1.80724      8.61113      4.95360         0.406156     -0.027820     -0.341219
21   2      0.23015      6.95473      6.52139        -0.194580     -1.103689     -0.307163
22   2      1.79994      8.53573      8.10755         0.649581     -0.387329      0.609695
23   2      0.38207      6.57467     10.05120        -0.295723      0.036481     -0.210049
24   2      1.88885      8.53331     11.44719         0.196467     -0.667708      0.698890
25   2     13.23505      9.88721     13.18764         0.245828     -0.389497      0.841251
26   2      1.81836     11.67859      1.66891        -0.412719     -0.173100     -0.115478
27   2      0.06999     10.05420      3.32973        -0.125714     -0.071616      0.136095
28   2      1.46241     11.68569      5.07376         0.599481      0.235816     -0.024050
29   2     13.19227      9.91858      6.66167        -0.052383      0.517277     -0.498389
30   2      1.47599     11.62829      8.33517         0.214666      0.072991      0.028658
31   2      0.00282      9.69712      9.97835         0.047033      0.932491     -0.095817
32   2      1.49526     11.57079     11.78319         0.199053     -0.074395     -1.014254
33   2      2.84005      0.21393     13.12071         0.731657     -0.222367      0.749536
34   2      5.25632      1.24306      1.59399        -0.347423      0.941509     -0.201478
35   2      3.31470      0.14491      3.45073         0.014896     -0.368549      0.141597
36   2      5.38944      1.43782      5.03235        -0.286004     -0.275010     -0.301579
37   2      3.26282      0.07586      6.66987         0.115470     -0.013820      0.051478
38   2      4.80190      1.89838      8.50295        -0.163583     -0.228369     -0.594987
39   2      2.88786      0.26805      9.96883         0.110048     -0.668547     -0.411246
40   2      4.55306      1.69372     11.65049         1.138963      0.474228      0.174935
41   2      3.47874      3.21066      0.55943         0.739302     -1.456533     -1.409199
42   2      5.07687      4.93563      1.86240         0.126669     -0.368114     -0.234233
43   2      3.44125      2.97543      3.30301        -0.203782     -0.270072      0.383846
44   2      5.18178      4.55667      4.81332        -0.604028      0.966202     -0.186853
45   2      3.36789      3.07481      6.24867        -0.005409      0.105317      0.398497
46   2      4.68775      4.85888      8.13180        -0.191349     -0.256700      0.165578
47   2      2.99959      3.39403     10.04129         0.805031      0.338005     -0.782147
48   2      4.91512      4.88558     11.66879        -0.575203      0.239448     -0.297594
49   2      3.47191      6.72773      0.09892        -0.224558      0.435178      0.488264
50   2      5.32839      8.44087      1.82780        -1.433604      0.318059      0.176147
51   2      3.45114      6.63619      3.31795        -0.004402      0.409948      0.052445
52   2      4.99626      8.36997      4.95843         0.176970      0.414982      0.054498
53   2      3.23683      6.62208      6.30057         0.413609     -0.128498      0.748264
54   2      4.78146      8.28672      8.19378        -0.138445     -0.460637      0.100472
55   2      3.17785      6.45921      9.82231         0.207178      0.156092      0.124888
56   2      4.73309      8.34191     11.48569         0.128440     -0.729869     -0.325503
57   2      3.40829      9.86361      0.12368        -0.240274      0.005435      0.029527
58   2      4.84024     11.81349      1.34415         0.438022     -0.016452      0.320254
59   2      3.47845     10.37404      3.48839         0.480678     -0.183395     -0.009046
60   2      5.38629     11.87779      5.26560        -0.275061      0.156744     -0.294030
61   2      3.47479     10.36197      6.70823         0.048551     -0.136078     -0.313624
62   2      5.07075     11.99449      8.43646        -0.524069     -0.290506     -0.134464
63   2      3.38612     10.22806      9.84557        -0.000698      0.339313      0.005281
64   2      4.85898     11.97419     11.64879        -0.097897     -0.070821     -0.039436
65   2      7.04284      0.15925     12.98149        -0.594510     -0.498287      0.280605
66   2      8.71156      1.75258      1.52867        -0.683240     -0.096136     -0.462195
67   2      7.04246     13.11053      3.02658        -0.139921      0.112051      0.641841
68   2      8.39656      1.59697      5.08470         0.187463     -0.301369     -0.165452
69   2      7.00089      0.20160      7.11826        -1.033705     -0.849202     -0.821911
70   2      8.43429      1.86536      8.46191         0.589074      1.072806      0.469000
71   2      6.54291      0.33591     10.01154         0.671799     -0.136243      0.700919
72   2      8.47920      1.88070     11.54339         0.653506      0.158495     -0.052622
73   2      6.56188      3.41937     13.23621         0.430666     -0.639598      0.352417
74   2      8.48269      4.80602      1.64988        -0.881989      1.181474     -0.549325
75   2      6.95819      3.07139      3.33469        -0.226931      0.181809     -0.773221
76   2      8.25944      5.11449      5.08378         0.374083     -0.949861     -0.423463
77   2      6.61673      3.32774      6.70969         0.563810     -0.472475      0.604278
78   2      8.39129      4.93642      8.19748        -0.145737     -0.217423      0.133541
79   2      6.62140      3.32539     10.10034        -0.427237      0.248542     -0.460830
80   2      8.30297      4.99777     11.48349        -0.175035     -0.102347      0.453665
81   2      6.35140      6.68023      0.04765         0.031155     -1.143420     -0.684107
82   2      8.10362      8.13116      1.44379         0.452872      0.655525      0.734500
83   2      6.61555      6.49626      3.35021         0.518185      0.416116      0.100487
84   2      7.99552      8.25195      5.01473         0.119576      0.465682      0.161798
85   2      6.43651      6.40635      6.65981        -0.193681      0.776573      0.216978
86   2      8.12774      8.17355      8.49198        -0.803588     -0.411531     -1.109151
87   2      6.36326      6.49568      9.81046        -0.391916     -0.404155     -0.078179
88   2      8.02202      7.90069     11.52539        -0.190313      0.906323     -0.198667
89   2      6.45685      9.95606     12.94509         0.421302      0.328042      0.392049
90   2      8.40355     11.50839      1.26260        -0.316640     -0.155442     -0.381489
91   2      6.67283     10.23983      3.30514         0.097828      0.232220      0.247187
92   2      8.30300     11.69289      5.23365         0.118007     -0.447929     -0.180725
93   2      6.57912      9.93863      6.91549        -0.009797     -0.140497     -0.603024
94   2      8.29350     11.26389      8.57070         0.439047      0.627081     -0.480102
95   2      6.39063      9.96856     10.03989        -0.229191     -0.148765     -0.117444
96   2      8.42088     11.40209     11.36429        -0.017879      0.195203      0.746293
97   2     10.10908     13.21162     13.15424         0.081344     -0.009044     -0.237922
98   2     11.64909      1.72538      1.73333        -0.453671      0.110177     -0.214639
99   2      9.93198     13.16324      3.20931         0.196861     -0.133552      0.252198
100   2     11.61909      1.52221      4.92196        -0.314122     -0.563123     -0.449517
101   2      9.88076      0.01698      6.86202         0.732065     -0.351589      0.058626
102   2     11.72079      1.66563      8.37583        -0.386734     -0.135361      0.041512
103   2      9.92508     13.17199      9.83954         0.462829      0.230088      0.363222
104   2     11.56099      1.71137     11.49679         0.457641     -0.245207      0.138512
105   2     10.19652      3.51709     13.19067        -0.616339     -0.736081      0.702416
106   2     11.85519      5.20080      1.75650        -0.805062      0.000402     -0.125817
107   2      9.94719      3.43903      3.34612         1.005578     -0.192932      1.110845
108   2     11.56519      5.24722      5.06751         0.268540     -0.597621     -0.236256
109   2     10.17454      3.19110      6.50062        -0.637804      0.759186      0.434569
110   2     11.77599      5.09108      8.19013        -0.501668      0.944249     -0.327189
111   2     10.19880      3.46361      9.87177        -0.191587      0.547732      0.184014
112   2     11.69459      5.09358     11.80049         0.193874      1.294600     -1.208426
113   2      9.84632      6.73287     13.16437         0.693743     -0.730783      0.761772
114   2     11.76479      8.32862      1.77186        -0.336141     -0.251580     -0.288789
115   2      9.90020      6.81910      3.38170        -0.238740     -0.232711     -0.592452
116   2     11.46909      8.41922      5.00348         0.589559     -0.225001     -0.790704
117   2      9.83204      6.73598      6.57786         0.196144      0.390294      0.836555
118   2     11.77929      8.18581      8.28292        -0.156537     -1.121827     -0.021730
119   2      9.96987      6.54649      9.87687         0.601067     -0.438495      0.013292
120   2     11.84239      8.01773     11.65989        -0.675823      0.152818     -0.302911
121   2      9.93831      9.63803     13.12448         0.097067      0.029780      0.046190
122   2     11.62329     11.40069      1.68688        -0.600296      0.069703     -0.379968
123   2      9.57167      9.89952      3.11392         0.333111     -0.451017      0.485501
124   2     11.28149     11.33469      4.89141         0.142819      0.440887     -0.009212
125   2      9.95941      9.72041      6.79321        -1.412008      0.125622     -0.230853
126   2     11.45879     11.21609      8.45067         0.253115      0.969689      0.524542
127   2      9.96307      9.33586      9.97250         0.413126      1.268134      1.110043
128   2     11.54629     11.35209     11.53699        -0.092104      0.495602     -0.360855
