ITEM: TIMESTEP
0
ITEM: NUMBER OF ATOMS
128
ITEM: BOX BOUNDS pp pp pp
0.0 13.2781843431999995 
0.0 13.2781843431999995
0.0 13.2781843431999995
ITEM: ATOMS id type x y z fx fy fz
1   2     13.00839     13.00489      0.36527         0.034483     -0.022221     -0.197206
2   2      1.30269      1.59012      1.96352         1.600803      0.743877     -2.144534
3   2     13.08459      0.22510      3.40500        -0.691580     -1.585784      0.509375
4   2      2.03165      1.90686      5.13205        -1.040982     -0.108724     -0.780209
5   2      0.12110     13.08720      6.15512        -0.759715      1.547241      1.393055
6   2      0.96869      1.81187      8.28972         1.316510     -1.501516     -1.337380
7   2      0.03270     13.02349      9.88581        -0.282566      0.247050     -0.069235
8   2      1.22333      1.49884     12.15929        -1.356920      0.978230     -1.622624
9   2     12.52649      3.17440     13.13789         1.286633      0.504373     -0.748856
10   2      1.17492      4.63253      1.03691         0.802958     -0.186676     -0.344167
11   2     13.22619      3.34728      3.27397        -0.068493     -0.447625      0.130642
12   2      2.14097      5.02798      4.91835        -0.605986     -0.479474      0.529336
13   2      0.02440      3.53267      6.40907         0.300987     -0.004462     -0.196589
14   2      1.36706      4.72752      8.79150         1.470665      1.085882     -1.513962
15   2     13.24979      3.14267     10.21830        -2.050779     -0.169177      2.131212
16   2      1.59427      4.88268     11.63009         0.246631      0.090803     -0.191473
17   2      0.78040      7.21912     13.08819        -0.296032      0.254378      0.151238
18   2      1.98334      8.49482      2.03937        -1.107165      1.271807     -1.916778
19   2      0.43508      6.06032      3.07776        -1.063099      1.704444      0.509505
20   2      1.96068      8.10319      4.70830         0.179155     -0.516725      0.040793
21   2      0.54003      6.66860      6.53848        -0.638324     -0.389284      0.498938
22   2      2.03958      8.55968      8.22289         0.333877      0.104272     -0.256703
23   2      0.17823      7.04716      9.64340         0.511966     -0.097862      0.254302
24   2      2.19739      8.72654     11.10819        -0.421331     -0.647487      1.202114
25   2      0.02500      9.94706      0.26905        -0.248647     -0.642348      0.094397
26   2      1.57280     11.57389      1.93556         0.429895      0.220648     -0.318180
27   2     13.16409      9.82772      3.21677        -0.310649     -0.766850      0.663510
28   2      1.68420     11.66079      4.69117         0.512180     -0.269637     -0.051197
29   2      0.18100      9.54096      6.23734        -0.525754      0.385176     -0.301560
30   2      1.41853     11.49139      7.89846        -0.310116     -0.316156      0.170541
31   2      0.03270      9.81455      9.93348        -0.340497      0.442820      0.117589
32   2      1.33459     11.57229     11.80559         0.602522     -0.379696     -0.194734
33   2      2.82280     13.25829      0.15354         1.884796     -1.116429      1.086808
34   2      5.34778      1.57703      1.55304         0.772692      0.836477     -0.596089
35   2      3.56258      0.70200      3.19458        -0.908115     -1.048359      1.059431
36   2      5.02193      1.70948      5.33421        -0.087186      0.634334     -0.311833
37   2      3.18141     13.18350      6.75020        -0.786243      0.598611     -0.540834
38   2      4.80673      1.36662      8.47516        -0.407065     -0.215662     -0.778198
39   2      2.93798      0.34122     10.31661        -0.607734     -0.314659     -0.690224
40   2      4.95022      1.61146     11.89109         0.098301     -0.144639     -0.334650
41   2      3.18435      2.83541      0.13246        -0.324810      1.153768      0.147376
42   2      5.28660      4.44327      1.14768        -1.292425      1.758078     -1.737117
43   2      3.31273      3.56843      2.82449        -0.302079     -0.249504      0.658577
44   2      4.80269      4.78061      5.02241        -0.204018      0.552359      1.564603
45   2      3.24896      3.14692      7.10428        -0.058049      0.993161      0.195329
46   2      4.94727      4.85392      8.54531        -0.020402      0.352587     -0.231333
47   2      3.37589      3.14647     10.07805        -0.765683      0.149904      0.474197
48   2      5.28195      4.82024     11.48179        -0.839730     -0.662830      1.225676
49   2      3.53763      6.46984     13.03379         0.015352      0.227189      0.668665
50   2      5.01279      8.36632      1.71639        -0.315774      0.371892      0.134915
51   2      3.28238      6.42198      2.64166         1.254343     -1.933525      0.503907
52   2      5.09953      7.76810      5.29257        -0.593286      0.279522     -1.390397
53   2      3.46737      6.52456      6.94312        -0.668973     -0.324777      0.650601
54   2      4.98885      8.62878      8.80033        -1.439521     -1.061971     -0.867268
55   2      3.67781      6.52975     10.28017        -1.170531      0.443491     -1.025119
56   2      4.93426      8.71744     11.51489         0.550782     -0.367230      0.903790
57   2      3.65660     10.26839      0.15337        -0.691629      0.375634      0.293216
58   2      5.17031     12.19629      1.86033        -1.129182     -1.186336     -0.514712
59   2      3.55608     10.22585      3.39061         1.096039      0.094953     -0.607802
60   2      5.06734     12.09439      5.00809         0.098288     -0.349046     -0.148720
61   2      3.44742      9.94014      6.10661        -0.016473      0.288423      1.127995
62   2      5.04881     11.97789      8.21151        -0.309189     -0.193201     -0.902579
63   2      3.21422     10.76566      9.75725         0.472887      0.197966      0.386608
64   2      4.86338     12.25159     11.71389         0.413830     -1.420984     -0.000236
65   2      7.17151     13.22879     13.10638        -1.043861     -0.123592      0.113419
66   2      8.41071      1.81255      1.70669         0.174289     -1.692793      0.188001
67   2      6.95438      0.30100      3.52340        -0.665501      0.736859      0.832730
68   2      8.30593      1.97417      5.22453         0.544092      0.013447     -0.239296
69   2      6.94006      0.29960      6.65790        -0.984514     -1.503566      0.344769
70   2      8.71146      1.62841      8.14232        -0.349891      0.755964      0.656947
71   2      7.00117     13.26159      9.64060        -0.032110      0.492126      0.627262
72   2      8.69366      1.48974     11.36109         0.222674      0.010191     -0.666858
73   2      7.00232      2.89895     13.09899        -0.497832     -0.294666     -0.571347
74   2      8.41016      4.86899      1.41560        -2.074164      0.526028      0.451601
75   2      6.39221      3.78973      3.30517         2.087004     -2.811969      1.001202
76   2      8.34851      4.73929      5.37966        -1.208630      1.280255      0.520381
77   2      6.57599      3.40073      7.03909        -0.057902     -0.497300     -0.588703
78   2      8.44695      4.61066      8.64932        -0.015502      0.247010     -0.688422
79   2      6.40909      2.76152      9.93251         1.611418      0.834348      0.186234
80   2      7.90050      4.69344     11.46759         1.829180      0.750848     -0.310052
81   2      6.48969      6.81498      0.10760        -0.106494     -0.881595     -1.533818
82   2      7.92626      8.22765      1.77309         0.503465      1.131593     -0.409842
83   2      6.58244      6.39503      3.31780        -1.090360      0.715537      0.017427
84   2      7.93960      8.11902      5.18427         1.543658      0.123351      0.290652
85   2      6.70190      6.97740      7.25011        -0.067621     -1.860092     -0.312872
86   2      7.86787      8.96020      8.55204         1.703865     -1.374836     -0.075590
87   2      6.80482      6.51665      9.85936        -0.065084      1.178819      0.585230
88   2      8.42551      8.39225     11.70809        -1.410590      1.190113      0.124296
89   2      6.51359     10.27327     13.20719         0.239904     -0.225240     -0.327778
90   2      7.72092     11.48349      2.11605         1.523476     -0.736998     -0.110622
91   2      6.36363      9.75552      3.78868        -0.386958      0.598227     -0.333358
92   2      8.31727     11.51149      5.11628        -0.116412     -0.491046     -0.086380
93   2      6.22192      9.98031      6.75756         0.075606      0.661033     -1.334401
94   2      8.53626     11.56799      7.97099        -0.266115     -0.474123     -0.306767
95   2      6.39072     10.53428      9.95754        -0.199829      0.713274      1.886894
96   2      8.54578     11.55569     11.16969         0.213049     -0.311616      0.686572
97   2      9.78726     12.73809      0.10095         0.742229      3.438386      0.108792
98   2     11.29099      1.50955      1.52663        -0.667323     -0.088834      0.979809
99   2      9.77839      0.00565      3.50162        -0.072119      0.344157     -0.163714
100   2     11.52249      1.68220      4.95260        -0.191335      1.226827      0.223406
101   2     10.34136     13.11739      6.54400        -0.409991      0.172465      0.236633
102   2     11.41329      1.63210      8.47305         2.212765      1.768900     -0.548694
103   2     10.23409     12.99639      9.54051        -0.858787     -1.093276      2.087520
104   2     11.48539      1.29936     11.60749        -0.269621     -0.710220     -0.573773
105   2      9.81597      3.38493     13.10399         0.635685     -0.978231     -1.108124
106   2     11.41779      5.05632      1.32551         0.257897      1.213324      1.374701
107   2      9.51120      3.44438      3.36907         2.123828      0.178838      0.158292
108   2     11.66519      4.84631      4.66336        -1.038164      1.210071      0.289594
109   2     10.29917      3.44955      6.80461        -0.010055     -0.263440     -0.455061
110   2     11.85529      5.14039      8.23675         1.272647     -0.145579      1.537054
111   2     10.41878      3.99702     10.38413         0.583732     -0.654425      0.126003
112   2     12.03609      5.91554     11.61679         0.139815     -1.095114      0.504831
113   2      9.62535      6.44903     12.99909         0.780181      0.504184     -0.115263
114   2     11.27219      8.27423      1.45746         0.537898     -0.716210     -0.739172
115   2      9.28028      6.45250      3.38451         0.872652     -0.313757      0.095813
116   2     11.37839      7.73416      4.23139         1.779400      0.020528      1.148212
117   2     10.25476      6.30525      6.63549        -1.397130      1.549554     -1.052427
118   2     11.67959      8.25640      7.97901         0.386893     -0.604691      0.278205
119   2      9.75955      6.84676      9.95924         0.417008     -0.590378     -0.726066
120   2     11.51989      8.54518     11.78519         0.253943      0.202674      0.933324
121   2      9.50176     10.28860      0.32655        -0.330237     -3.286299     -0.114492
122   2     11.38859     11.55979      2.00579         0.049703     -0.282429     -0.090173
123   2      9.75554      9.60597      3.24644        -0.767922      1.204406      0.917917
124   2     11.60279     11.53459      4.79642        -0.005805     -1.006728     -0.061613
125   2     10.19158      9.68458      6.36529        -0.859633      0.110738     -0.694758
126   2     11.75769     11.24479      8.22909         0.511009     -0.145842     -1.122312
127   2     10.10236      9.65622      9.79735         0.261436      0.723143     -0.000080
128   2     11.58019     11.46669     11.75209         0.197247     -0.340828     -0.667640
