ITEM: TIMESTEP
0
ITEM: NUMBER OF ATOMS
128
ITEM: BOX BOUNDS pp pp pp
0.0 13.2781843431999995 
0.0 13.2781843431999995
0.0 13.2781843431999995
ITEM: ATOMS id type x y z fx fy fz
1   2      0.23247      0.02384      0.19936        -0.551036      0.332930      0.392186
2   2      2.03068      2.04449      1.76221        -0.247737     -0.068108     -0.029073
3   2      0.18528      0.20943      3.10637         0.197718     -0.015608      0.166538
4   2      1.55734      1.74763      5.25108         1.042282     -0.077043     -1.439363
5   2     13.07216      0.00138      6.49099        -0.025927     -0.690186     -0.098970
6   2      1.81461      1.34932      7.99823        -0.244471      0.233757      1.092753
7   2      0.15126      0.34428     10.07077        -0.213617     -1.445740     -0.237442
8   2      1.62515      1.72369     11.76669        -0.145172      1.266834     -0.372680
9   2      0.11717      3.72130      0.02444        -0.572132     -1.414092      0.683797
10   2      1.78337      5.10029      1.92601         0.899811     -0.913771      0.762879
11   2      0.14170      3.37742      3.27330        -0.914969     -0.433605     -0.035185
12   2      1.44705      4.85619      5.18333         0.222412     -0.047740     -0.123044
13   2     12.88223      2.87554      6.64518        -0.376084      0.862203      0.859733
14   2      1.29081      4.89146      7.96861         0.082658     -0.520981      0.260928
15   2     13.05960      3.05435      9.73981         0.357572      0.151991     -0.076790
16   2      1.39197      4.81113     11.17769        -0.163735      0.784463      0.403429
17   2      0.31573      6.43338      0.14753        -0.507924      0.790842     -0.209164
18   2      1.88097      7.94379      2.00043        -0.479531      0.377289     -0.719367
19   2     13.21246      6.58449      3.45639         0.093856      0.254098      0.100724
20   2      1.62342      8.42055      4.94106        -0.140004     -0.714563      0.631232
21   2     13.21126      6.88299      6.54841        -0.331635     -0.722839      0.304908
22   2      1.61459      8.48674      8.02343        -0.004461      0.647324     -0.287986
23   2      0.10426      6.77826      9.60118        -1.282434      0.260228      0.448395
24   2      1.53268      8.38679     11.66149         0.970090     -0.587647      0.087629
25   2      0.26937     10.08754      0.33740        -0.600494     -0.857121      0.447101
26   2      1.96014     11.71249      1.73409         0.302408      0.287862      0.502852
27   2      0.15818      9.91461      3.22393        -0.704355      0.234567     -0.843063
28   2      1.83904     11.56819      4.59875        -0.728852      0.747990      0.477439
29   2      0.00107     10.29898      6.56024        -0.024805     -0.396133     -1.233761
30   2      1.57648     11.60869      8.22358         0.572364      0.742399      0.644092
31   2     13.21669      9.86987     10.02044         0.562026     -0.426571     -0.700186
32   2      1.65887     11.59769     11.82379         0.414250     -0.134792     -0.634512
33   2      3.26107      0.27339     13.24395         0.757175     -0.489903      0.667040
34   2      4.88118      2.18171      1.70517        -0.067883     -0.789682     -0.093395
35   2      3.58325      0.20736      3.43910        -0.450722      0.614754     -0.366263
36   2      5.15582      1.62560      5.42131        -0.821333     -0.169331     -1.556011
37   2      3.33291     13.06498      6.38848         0.212850     -0.253560      0.497941
38   2      5.00951      1.30801      8.35193        -0.169361     -0.238319      0.153625
39   2      3.22189     13.15827     10.14604        -0.130215      0.198934     -0.775532
40   2      4.87217      1.74314     11.50639        -0.015368      0.152501     -0.443078
41   2      3.36069      3.55110     12.95765        -0.641394     -0.490534      0.893890
42   2      5.11958      5.28079      1.76206        -0.874943     -1.266729     -0.372972
43   2      3.52148      3.59637      3.77846        -0.170028     -0.240257      0.032610
44   2      5.28749      5.01913      5.51159        -0.151074     -0.224698      0.703135
45   2      3.46994      3.33233      6.96565         0.189736      0.288066     -0.764024
46   2      4.95993      5.31765      8.56047         0.730894     -0.581958     -1.362992
47   2      3.06645      3.43927      9.68130         0.453616     -1.220947     -0.119722
48   2      4.70812      5.08329     11.22899         0.988153      0.667038     -0.081149
49   2      3.17088      6.28771     13.15827         0.072997      1.138953     -0.132737
50   2      4.93246      8.04524      1.69877         0.248853      0.690304     -0.203444
51   2      3.64877      6.68352      3.68379        -0.897566     -1.196769      0.416969
52   2      5.12781      8.31990      5.18526         1.140283      0.330775      0.737854
53   2      3.19910      6.55267      6.55596         0.046371      0.271339      0.240451
54   2      5.01553      8.20626      8.13285        -0.384162      0.461463     -0.107132
55   2      2.89247      6.70989      9.60539         0.428393      0.217472      0.768958
56   2      4.55950      8.30266     11.57089         0.212964     -0.675880     -0.358006
57   2      3.21417      9.68867      0.24468        -0.189646      0.150828     -0.045168
58   2      4.85554     11.66029      1.35076        -0.209863     -0.381393      0.677123
59   2      3.46460      9.70985      3.43204         0.629361      0.571598     -0.933549
60   2      5.04709     11.58469      4.81260         0.573570      0.085054      0.441148
61   2      3.35016     10.04495      6.42042         0.163216      0.188661      0.974129
62   2      4.96836     11.51849      8.39385        -0.448548      0.445552     -0.002164
63   2      3.11235      9.92229      9.86661         0.140732      0.180095     -0.147833
64   2      4.65964     11.39919     11.74989         0.217164     -0.318510      0.055028
65   2      6.38568      0.00121     13.14370         0.618478      0.613945      0.455245
66   2      8.03583      1.87904      1.52249        -0.018566      0.019353     -0.460448
67   2      6.41337      0.08233      3.01824         0.412644      0.188262      0.149830
68   2      8.33127      1.59706      4.81792        -0.013675      0.287293     -0.350332
69   2      6.92083     13.10244      6.48048        -0.005863     -0.421079      0.576551
70   2      8.33152      1.26072      8.71623        -0.081673      0.038537     -0.372558
71   2      6.47989     12.99982     10.30759        -0.069432     -0.202057     -0.757294
72   2      7.97440      1.73089     11.51669         1.074684      0.163163      1.150682
73   2      6.26508      3.65491     13.14386         1.180331     -0.062969     -0.421894
74   2      8.23929      5.22113      1.67449        -0.155381     -0.871076     -0.069001
75   2      6.51379      3.46297      3.48262         0.568722     -0.268931      0.118771
76   2      8.38784      4.72139      5.19941         0.337840      0.102500     -0.282005
77   2      6.79931      3.00724      6.85995         0.856613      0.786272      1.016947
78   2      8.47724      4.95706      8.42526         0.171049     -0.472645     -0.079689
79   2      6.55405      3.21822      9.79976        -0.430834      0.712474     -0.518513
80   2      8.09665      5.06007     11.30629         0.463189     -0.178948      0.685665
81   2      6.40605      6.72723     13.07305         0.623548     -0.488338     -0.722422
82   2      8.09235      8.02424      1.89939        -0.343212      0.126044     -0.894051
83   2      6.58287      6.45902      3.63639         1.042130      0.590209      0.555172
84   2      8.24998      8.54740      4.75996        -1.003116     -0.506972      0.832421
85   2      7.29149      6.85586      6.78400        -1.233073     -0.014047     -0.554629
86   2      8.68641      8.63993      8.39959        -0.104386      0.702434     -0.023484
87   2      6.97757      6.91709      9.62300        -0.948844     -0.166558      0.568018
88   2      8.35220      8.22876     11.55329        -0.085532     -0.887982     -0.177264
89   2      6.57991      9.58037     13.21202        -0.743479      0.064690      0.736429
90   2      8.21173     11.53259      1.55207        -0.041754      0.166699     -0.145495
91   2      6.46228     10.08169      3.03860        -0.389237     -0.782827     -0.078023
92   2      8.28174     11.52559      4.48256        -0.025924      0.480145      0.285720
93   2      6.73481     10.18482      6.82960         0.342633     -0.399749     -0.483156
94   2      8.49487     11.64629      8.57557        -0.380530     -0.564903     -0.328282
95   2      6.48695      9.79796     10.07724        -0.031196      0.167988     -0.323034
96   2      8.07884     11.31609     11.87149         0.368921      0.722897     -0.604032
97   2      9.86336     13.05565     13.26163         0.130360      0.632288     -0.164554
98   2     11.53239      1.68899      1.48214         0.410112      0.358986     -0.059853
99   2      9.88853      0.06517      3.02712        -0.690116      0.437606      0.265957
100   2     11.59469      1.60056      4.66113        -0.678049     -0.054186     -0.231515
101   2      9.85332     13.09325      6.43528         0.191566      0.017081     -0.049264
102   2     11.32509      1.11585      8.45629        -0.206055      0.438741     -0.120119
103   2      9.92524     12.97489     10.43409         0.547649      0.185119      0.528006
104   2     11.67839      1.67122     11.97049        -0.095896     -0.008138     -0.321039
105   2      9.89677      3.61583     13.13027        -0.398430     -0.269845      0.127782
106   2     11.50249      5.20141      1.81258         0.491724     -0.975540     -0.637812
107   2      9.92358      3.30487      3.07809        -0.324556      0.147775      0.454538
108   2     11.60749      4.92260      5.02604        -0.230270     -0.669343      0.131202
109   2      9.75256      2.97509      6.98073         0.488064     -0.192323     -0.524727
110   2     11.60719      4.87627      8.14026         0.004190      0.572146     -0.328601
111   2     10.26921      3.34362     10.03169        -0.876306     -0.420273      0.427803
112   2     11.67039      5.19240     11.57759         0.371093      0.097322     -0.094981
113   2      9.94343      6.65558      0.03774        -0.374596     -0.026170     -0.766714
114   2     11.60619      8.23236      1.56053         1.456792     -0.248698     -0.365775
115   2     10.05565      6.72591      3.49341        -0.538139     -0.282258      0.519607
116   2     11.77809      8.48522      4.94878        -0.621613      0.382672     -0.037892
117   2     10.02479      6.71272      6.51632         0.342484      0.037195      0.056355
118   2     11.46189      8.72036      7.97223         0.509053     -0.479165      0.630788
119   2     10.28451      6.78675      9.78591         0.023984      0.077956      0.284559
120   2     12.11639      8.14881     11.95219        -1.292770      0.104397     -0.212891
121   2      9.78231      9.69579      0.00345         0.840511      0.296368      0.859551
122   2     11.56379     11.68289      1.76250         0.578873     -0.752130     -0.592589
123   2      9.97775      9.60882      3.07175         0.316134      1.909776      0.040410
124   2     11.61589     11.62769      4.63773        -0.021997      0.138934     -0.003163
125   2      9.83199     10.17367      6.34649         0.130719      0.498100      0.121016
126   2     11.84269     11.59999      8.47486        -0.972404      0.597383      0.213062
127   2     10.23104      9.88309     10.46555         0.406558      0.324778     -0.652656
128   2     12.07659     11.54139     11.76759        -0.916039      0.856465      0.396905
