ITEM: TIMESTEP
0
ITEM: NUMBER OF ATOMS
128
ITEM: BOX BOUNDS pp pp pp
0.0 13.2781843431999995 
0.0 13.2781843431999995
0.0 13.2781843431999995
ITEM: ATOMS id type x y z fx fy fz
1   2     13.14739     13.24581      0.16745         0.835536      0.035442     -0.362379
2   2      1.21110      1.97874      1.58598         0.095247     -0.499267      0.438776
3   2      0.24745      0.23880      3.61044         0.703438     -0.627529     -1.356594
4   2      2.07348      1.63062      5.51127        -1.070728     -0.298321     -1.315629
5   2     13.02209     12.98050      6.23550         1.046088      0.258168      0.130504
6   2      2.02703      1.60956      8.22911        -0.920069      1.204832     -0.379118
7   2      0.21807      0.00700      9.29279        -0.070509     -1.789939      0.848125
8   2      1.18717      1.71734     11.35099         0.749857     -1.079402      0.579179
9   2     12.69319      2.84562     12.81689        -0.420837      1.488230      2.036729
10   2      1.17250      5.16593      1.58911         0.968987     -2.202474      1.373093
11   2      0.33735      3.17647      3.93824        -0.158505      0.184725     -1.604753
12   2      1.70332      4.79237      5.43643         0.070114      1.583449     -0.410955
13   2     13.05066      3.10827      6.70968         2.936295     -1.224047      0.308970
14   2      1.49241      4.79379      8.53160         1.418479     -0.235776     -0.311296
15   2     13.08159      2.84568      9.55980         0.116979      1.618097     -0.558486
16   2      1.53919      5.03958     11.74709        -0.629923     -0.789654     -1.113753
17   2     12.97799      6.48186      0.08730        -1.116737      1.370013     -1.715365
18   2      1.44382      8.01313      2.05605        -0.385285      0.266395     -0.768799
19   2     12.82759      6.25286      3.85679         0.555923     -0.498504     -0.203521
20   2      1.96722      8.21316      4.61019        -1.113823     -2.248859      2.309654
21   2      0.22910      6.90607      6.63857         0.002961     -0.298240     -0.486176
22   2      1.43277      8.62196      8.46096         0.810819      0.735666     -0.145396
23   2      0.22413      6.75554      9.87564        -0.256901     -0.002316      0.328450
24   2      1.11963      8.65554     11.60029         0.008723      0.662393      0.129984
25   2     13.24809      9.99032      0.52952         0.391915      0.413456     -0.107838
26   2      1.92045     12.00959      1.78602         0.264862      0.889776     -0.515230
27   2      0.40550     10.41042      3.29165        -0.246925     -0.628324      0.007856
28   2      2.04326     11.94629      5.07650         0.636762     -0.051694     -0.162862
29   2      0.49752     10.06083      6.19012         0.463086      0.467862      0.851652
30   2      2.01336     11.42119      8.15475        -0.583728      0.125272     -0.029271
31   2     12.81409     10.27201      9.71130         1.843211      0.451660      1.329883
32   2      1.44317     11.62009     11.66279        -0.467532      0.256180      0.038872
33   2      3.19100      0.56091     12.45879         0.971655     -0.183811      2.634191
34   2      5.01358      2.12633      1.30714        -0.459695     -0.515522     -0.420387
35   2      3.46715      0.36003      3.40138         0.137011      0.001014     -0.575092
36   2      5.45155      1.82034      4.94017        -0.596769     -0.218965      0.420429
37   2      3.67773      0.01340      6.89923         0.714208      0.245526     -0.097520
38   2      5.33706      1.97027      8.36974        -1.420805     -0.020647      0.294262
39   2      3.22745      0.00960      9.94215         1.060704     -1.333056     -0.652992
40   2      5.49443      1.93578     11.62619        -0.469062     -0.550261     -0.288337
41   2      2.87349      3.35266      0.08300         0.632171      0.026343     -0.373405
42   2      4.88275      5.18264      0.95687        -1.915850     -1.421910      1.075084
43   2      3.36264      3.14025      3.33757        -0.304350      0.621323     -0.110014
44   2      5.42052      4.45885      5.12943        -0.457096      1.626090      0.997809
45   2      3.46381      3.43666      6.79489        -0.058581     -0.958434     -0.576304
46   2      4.89549      4.80529      8.26590         0.844163      1.965851      2.002955
47   2      3.29085      2.95804     10.20730         0.449930      0.692153     -0.239063
48   2      4.39595      5.04715     11.48859         0.537965     -0.166006     -0.324792
49   2      2.69578      6.95117     13.16254         0.995304      0.466951      0.340216
50   2      4.95607      8.21219      1.05029        -0.191929      0.044306      0.444806
51   2      3.15591      6.01284      3.08540         0.733179      0.136838      0.951504
52   2      5.00839      7.58038      5.31310        -0.293011     -0.698447      0.112093
53   2      3.01957      6.78151      6.95449         0.235944     -0.450468      0.635923
54   2      5.13788      8.31973      8.54028        -0.808451      0.723328      0.009204
55   2      3.12228      7.18101     10.32013        -0.824889     -0.588909     -1.338452
56   2      5.09757      8.28007     11.60209         0.422641      1.362418      0.067960
57   2      2.86906      9.97519      0.26911        -0.330125     -1.082436      0.291441
58   2      5.16038     11.15709      1.84956        -0.312599      0.783342     -0.977554
59   2      3.33230      9.93304      3.47574         1.017793      1.622730     -1.304968
60   2      5.01828     11.76119      5.01647        -1.025337     -0.221841     -0.551000
61   2      3.55717      9.67607      6.54457        -0.759909     -0.533403     -0.557575
62   2      4.97599     11.29059      8.08958         0.700117     -0.033304      1.482688
63   2      3.27907     10.11852     10.23501         0.622129     -0.177692      0.041500
64   2      4.63751     11.52789     12.38189         1.052663      0.370115     -0.961275
65   2      6.58423      0.08531      0.19787        -0.022227     -0.276845     -0.289080
66   2      8.21591      1.98104      1.69606        -0.009610     -2.008124     -1.307673
67   2      6.25753      0.14880      2.99226         0.494608      0.064506      0.046695
68   2      8.31952      1.76345      4.71854        -1.848997      0.567877      0.272543
69   2      6.53736      0.07199      6.70236         0.408547      0.005689     -0.442379
70   2      7.88135      1.54439      8.61616         0.596810     -0.191320      0.699581
71   2      6.54092     12.64889      9.96230        -1.671031      1.168721      1.362927
72   2      8.30975      1.40942     11.47429         0.307387      0.711599     -0.025518
73   2      7.15114      3.65166     12.92809        -0.767954     -1.556824     -1.094223
74   2      8.20289      5.19933      1.34452         0.844423      1.298227      2.101532
75   2      6.57891      3.58784      2.94370         0.099711      0.365290      0.329099
76   2      8.54478      4.94407      5.09542        -0.651147      0.171036      0.124195
77   2      7.34331      3.92158      7.26972        -1.584335     -0.302384      0.286590
78   2      9.24753      5.51845      8.54697         0.177849      0.056662     -0.221575
79   2      6.92420      3.85242     10.18532         0.276935      0.219643     -0.336956
80   2      9.30588      5.49054     11.29589        -0.672735     -0.689856     -0.179368
81   2      6.56977      6.29976     12.74309         1.796694      1.678065     -1.423511
82   2      7.79861      7.96465      1.68861         0.177487      0.105840     -0.306314
83   2      5.97633      6.30927      3.09797         0.721523      0.579842      0.526643
84   2      8.13141      7.89190      5.34985         0.091571     -0.481322     -0.993903
85   2      6.89401      6.55066      7.28306        -0.533019      0.082892     -0.776713
86   2      8.56721      8.46081      8.39802        -0.466486     -0.665632     -0.029829
87   2      6.70250      6.69886      9.96071         0.757263     -0.611976      0.900817
88   2      8.92943      8.25495     11.88619        -2.134913      1.366513     -1.639730
89   2      7.01308      9.92490     13.11619        -0.722912      0.229538     -0.073325
90   2      8.06679     11.57469      1.98057        -1.507647      0.567368     -0.025990
91   2      6.01380      9.22389      3.43106         0.935988     -0.247654      0.560975
92   2      7.60258     11.32829      4.68831         1.540013      0.602102     -0.425901
93   2      6.48574      9.66625      6.42862        -0.282755      0.098402      1.065700
94   2      8.09900     11.70969      8.16215         0.422842     -1.419145     -0.981355
95   2      7.12469      9.93470     10.28826        -0.166772     -0.312984      0.018322
96   2      8.46715     11.98419     11.84379         0.264358     -0.962457     -0.170273
97   2     10.14404      0.20260      0.10419        -1.596454      0.951855     -0.210183
98   2     11.52439      1.51670      1.91361         0.529053      0.666716      0.576809
99   2      9.58487     13.23556      3.34312         1.222163     -0.603611     -0.261441
100   2     11.59339      1.60014      4.75431        -1.901387      0.100005      0.572284
101   2      9.66063     13.18629      6.18751         0.085987     -0.793074      0.169343
102   2     11.60339      1.33109      7.93110        -0.643833     -0.983096     -0.855224
103   2      9.88048     13.21739      9.44175        -0.490518     -0.005655      1.996427
104   2     11.58219      1.17663     11.17859        -0.766597     -1.228565     -0.146651
105   2      9.90458      3.54807      0.08240         0.411543     -0.904082     -1.375372
106   2     11.75569      4.45355      1.70882         0.965466      0.820007      0.629640
107   2      9.77718      3.43165      3.19421         0.884581      0.743862      0.374575
108   2     11.39189      4.41534      5.36773        -1.554002      0.479042     -1.536327
109   2      9.56831      2.71380      6.87739         1.558769      0.468989     -0.632092
110   2     12.04809      5.07862      8.13958        -1.491918      0.984156      0.624309
111   2     10.31075      3.03009      9.57169        -1.295685      1.137079      0.819996
112   2     12.02089      4.89587     11.17779        -0.660101      0.111492      0.147767
113   2     10.21276      6.82905      0.21649         0.558961     -1.800480      2.074053
114   2     11.79769      8.09294      2.05389        -0.099963      0.625643      0.351165
115   2      9.66404      6.61708      3.30805         0.818684     -0.685343     -0.374169
116   2     11.93119      8.65557      4.96266        -0.277470     -0.668126     -1.563782
117   2     10.51260      6.76680      6.17249        -0.545914     -0.033226      0.971104
118   2     11.76909      8.81083      7.68063        -0.341704      0.042875     -0.057528
119   2     10.84280      7.51309      9.85547        -0.667560     -1.706590     -0.756317
120   2     11.64459      8.61371     12.05089         0.857387      1.296122      0.574993
121   2      9.66473     10.04990      0.79317         0.888258     -2.186586     -1.817506
122   2     11.42089     11.71489      1.66021         0.933410      0.361912      1.927694
123   2      9.58139      9.31987      3.48100        -0.038063      1.212742      0.132259
124   2     11.52239     11.25329      4.64336        -1.336114      1.261921     -0.137858
125   2      9.44811     10.10525      6.43731         0.950888      0.414610     -0.693110
126   2     11.44449     11.78389      7.92949         0.036713     -1.180456     -0.910562
127   2     10.18313     10.17609      9.70593        -1.541426      0.677408      1.192820
128   2     11.42389     11.57169     12.00739         0.298475     -0.861318     -0.976752
