ITEM: TIMESTEP
0
ITEM: NUMBER OF ATOMS
128
ITEM: BOX BOUNDS pp pp pp
0.0 13.2781843431999995 
0.0 13.2781843431999995
0.0 13.2781843431999995
ITEM: ATOMS id type x y z fx fy fz
1   2      0.15605      0.26210      0.35930        -0.866928      0.007099     -0.842652
2   2      1.78687      1.67455      2.00834         0.182521      1.076510      0.285649
3   2     13.13811      0.13151      3.34776         0.365551      0.118266      0.612419
4   2      1.76861      1.88701      5.22527        -1.179806     -1.326666     -1.318099
5   2      0.18310      0.07510      6.83636        -0.523230     -0.052884     -0.366105
6   2      1.45229      2.11700      8.18796        -0.240268     -1.599272      0.726560
7   2     13.25869      0.09535      9.64068        -0.184026      0.632210     -0.115589
8   2      1.41410      2.05564     11.18659         0.732108     -1.017924      0.278307
9   2     13.22686      3.53621     13.14746         0.357840     -0.468314      0.161488
10   2      1.42051      4.71643      1.93254         0.317069     -0.193325      0.086098
11   2     12.95989      3.29811      3.67494         1.265404     -0.070165      0.712612
12   2      1.73872      4.84125      5.07259        -0.002091      0.293082     -0.350231
13   2     12.93579      3.57776      6.52585        -0.246801     -0.637742      0.303611
14   2      1.76888      4.76227      7.99856         0.009027      1.555436      0.815347
15   2     12.96269      3.50503      9.80898        -0.928850      0.374982     -0.394098
16   2      1.51671      4.92572     11.15779         1.178614      0.404847      0.603839
17   2      0.28960      6.51296      0.06972        -0.187845      0.007742     -0.236405
18   2      1.74198      7.99402      1.88228         1.106767     -0.052169     -1.402568
19   2     12.93892      6.99495      3.01363         1.155044     -3.287932     -0.820323
20   2      1.68674      8.09077      4.75471         0.566391     -0.188662      0.538875
21   2      0.21380      6.60392      6.69162        -1.375749     -0.725180     -0.901538
22   2      1.66864      8.41627      7.73957         0.157831      1.924740      2.291324
23   2      0.13314      6.79990      9.77099        -0.033389      0.205751     -0.231982
24   2      1.82976      8.05232     11.44689         0.279296      0.090908      0.585135
25   2      0.26052     10.08273      0.05280        -0.884293     -0.576647      0.628585
26   2      1.78508     11.76409      1.69756        -1.092478      1.138225      1.399786
27   2      0.25570      9.71327      3.17669        -0.648319      2.321641      0.590251
28   2      1.49134     11.77949      5.03122         0.122405     -0.446540     -0.038861
29   2     13.04901      9.85318      6.41748         1.038565     -0.940139      0.575546
30   2      1.55270     11.44779      8.48461         0.259555     -1.014311     -0.643036
31   2     13.10609      9.92271      9.86355         0.260991     -0.222003     -0.213176
32   2      1.38088     11.69109     11.54669         0.506802      0.692435     -0.787638
33   2      2.95388      0.39417     13.00052        -0.809388     -0.269381     -0.317884
34   2      4.75680      1.46781      1.43797         0.229131      0.766406      0.624280
35   2      3.35134     13.27680      3.58865         0.027585      0.565456      0.914382
36   2      5.16057      1.25772      5.54874         0.007432     -0.936881     -0.839982
37   2      3.34884     12.98899      7.09137        -0.387272      0.495866     -1.420536
38   2      5.13483      1.42054      8.58884         1.149258     -0.591923     -1.373280
39   2      3.21367     13.17844      9.82343        -0.585408      0.361077      1.199983
40   2      4.92836      1.60729     11.34719        -0.117435      0.506043      0.352179
41   2      3.22033      3.23499     12.92273        -0.166383      0.546771      0.238416
42   2      4.90141      4.65063      1.51185         0.056563      0.436154      0.549440
43   2      3.66147      3.32499      3.59862        -1.011557     -1.554074     -0.724271
44   2      5.03692      4.82709      5.21277         0.462931      1.498698     -0.206772
45   2      3.47281      3.04289      6.74299         1.921453      0.760294     -0.042465
46   2      5.38318      5.24126      7.90816        -0.463101     -0.675833      0.702840
47   2      3.80681      3.51083      9.42506        -0.487540      0.835166      1.619927
48   2      5.29118      5.02649     11.54609        -1.582408     -0.120362     -0.219463
49   2      3.27391      6.17172      0.03228        -0.662822      0.444457     -0.566096
50   2      4.30558      8.39604      1.52537         1.486156     -0.550761     -0.354763
51   2      3.45330      6.15478      3.23133         0.060159      0.853648      0.509410
52   2      4.96686      8.32935      4.59873         0.346565     -1.016237      0.171781
53   2      3.36160      6.83098      6.59764         1.190965     -0.970591     -0.573814
54   2      4.93077      8.41933      8.55581         0.432864     -0.051317     -0.828407
55   2      3.64117      6.46043      9.71532        -1.189082     -0.508443      0.701362
56   2      5.03374      8.06693     11.97829        -0.299420      0.054176      0.188548
57   2      3.00037     10.26552      0.02176         1.284353     -1.234825     -1.546741
58   2      4.68987     11.95489      1.66210        -0.068783     -0.365858     -0.893190
59   2      3.32097     10.21589      3.42239        -0.722921     -0.163274      0.230983
60   2      5.19011     11.48849      5.06454         0.269700      1.247521     -0.772356
61   2      3.55425      9.89719      6.40716        -0.924917     -0.030137      0.384078
62   2      4.84438     11.28069      8.56110         0.920025      0.808200     -0.335875
63   2      3.47824      9.93535     10.34838        -0.954324     -0.155072      0.852373
64   2      4.87328     12.05519     11.95259        -1.056257      0.065022     -1.409924
65   2      6.89173      0.10153      0.04486        -0.056571      0.668898     -0.435503
66   2      8.20418      1.85933      1.66007         1.241925     -0.836879     -0.439114
67   2      6.55923     13.24739      3.12671         0.078787      0.299215      0.840261
68   2      8.29389      1.45195      4.76633        -1.248853     -1.098066      1.251315
69   2      6.95236     12.62479      6.96591        -1.009506      1.540066     -0.193497
70   2      8.14822      1.67820      8.22615        -0.478004      0.337241      0.530767
71   2      6.81807     13.23039     10.25207        -0.061538     -0.224963     -0.737884
72   2      8.37518      1.88056     11.56639         0.024080     -0.873312      0.397342
73   2      6.32556      3.24892     13.15519         1.591583     -1.489007     -0.197838
74   2      8.27150      4.58191      1.62974         0.776353      0.364190     -0.007629
75   2      6.51158      3.12861      3.24724        -0.709242      0.117961      0.995414
76   2      8.29059      4.94977      4.79665        -0.022063     -0.071893      0.147098
77   2      6.74598      3.19555      6.45337         0.787169      0.138920      0.474900
78   2      8.26733      5.21991      8.13625        -0.764065      0.443888      0.489683
79   2      6.93815      3.46384      9.89031        -1.071009      0.279388     -0.208266
80   2      8.59906      4.78162     11.84619        -1.037359      0.669177      0.046751
81   2      6.85331      6.38613      0.06274        -0.493661      0.307328     -0.069505
82   2      8.16967      8.24684      1.46006        -0.216959      1.338969      0.094277
83   2      6.66775      6.31828      3.17167        -0.751480      0.872017     -0.158928
84   2      7.98636      8.70487      4.68257        -0.763450     -1.232908     -0.249136
85   2      6.73310      7.04580      6.56500         0.056743      0.330101     -1.021778
86   2      8.19507      8.42229      8.52146         0.425033      0.011116      0.611151
87   2      6.73954      6.59338     10.01312         0.513096      0.833284      0.153929
88   2      8.41957      8.35393     11.79789        -0.302880      0.037658      0.340067
89   2      6.49793     10.56838     13.24765         0.606940     -2.441276      0.131151
90   2      8.28477     11.62269      1.63838         0.607324     -0.816715      0.688449
91   2      6.22834      9.93739      2.75278         0.874833      0.011897      0.179865
92   2      8.27230     11.49279      4.83175        -0.344522      0.756284     -0.023233
93   2      6.57171      9.93694      6.82629         0.394293     -0.673653     -0.035911
94   2      8.53897     11.42059      8.72326        -0.403172     -1.953683      0.285986
95   2      6.42993      9.89725     10.40035         0.743630      0.297721      0.200931
96   2      8.55381     11.66349     11.59159         0.330344     -0.920103      0.781756
97   2     10.18220     13.09719      0.32870        -0.229183      1.326852     -1.021199
98   2     11.65789      2.01110      1.81738        -0.170635     -1.472875     -1.053831
99   2      9.97085     13.12785      3.19863        -0.133044      0.795636      0.647206
100   2     11.38839      1.27246      5.29349         0.716591     -0.268186      0.469969
101   2      9.70561     13.25999      7.04089         0.071490     -0.263941     -1.876161
102   2     11.30829      1.87399      8.23716         0.985400     -0.576056     -0.344305
103   2      9.91992      0.00840      9.93451         0.944320      1.367620      0.304245
104   2     11.69439      1.71435     11.53439         0.815460     -1.470396     -0.966234
105   2     10.25455      3.11926     13.06539        -0.768299      0.735350      1.917609
106   2     11.60039      4.88183      1.79066         0.185490     -0.482573      0.344445
107   2     10.06854      2.99876      3.78810         0.192591      1.943638     -1.066698
108   2     11.62559      5.34321      4.94173        -0.584509     -0.084856     -0.376525
109   2      9.85475      3.72851      6.70787         0.702605     -1.135745     -0.840281
110   2     11.54219      5.32302      8.36979        -0.022157     -0.682714     -0.647627
111   2      9.84753      3.52131      9.73702         0.209491      0.002665      0.504263
112   2     11.56049      5.29472     11.74729         1.155936     -0.564982     -0.358607
113   2     10.11479      6.52760      0.34180        -0.870945      0.827071     -0.929160
114   2     11.46579      8.65075      1.60324         0.771053     -1.176893      0.139293
115   2      9.72875      6.72836      3.04872        -0.010677     -0.444027      1.046014
116   2     11.54209      8.11605      4.70058        -1.138652      1.451636      2.784626
117   2      9.73809      6.75493      6.42498        -0.260730      0.460015     -0.302555
118   2     11.45099      8.01480      8.20222         0.338038      1.093445     -0.474592
119   2      9.88125      6.53698     10.17072        -0.802458      1.312869     -0.487705
120   2     11.99259      8.36381     11.85659         0.416635     -1.341925      0.622592
121   2     10.33025     10.13699     13.24175        -1.670406      1.391258     -1.844085
122   2     11.71479     11.58139      1.90272         1.263296     -0.892972     -0.081248
123   2     10.00360      9.93348      3.47360        -0.452305      0.539228     -1.108992
124   2     11.60419     11.46119      5.04563        -0.382601      1.527792     -0.705258
125   2      9.70501      9.71862      6.60222         0.521905      0.149587     -0.061214
126   2     11.45119     11.50919      7.90686         0.781045     -0.462448      1.223598
127   2     10.38147      9.55117     10.16674        -1.384893      1.161284     -0.326940
128   2     11.84839     12.11139     11.53349        -0.331481     -0.862202      0.659192
