ITEM: TIMESTEP
0
ITEM: NUMBER OF ATOMS
128
ITEM: BOX BOUNDS pp pp pp
0.0 13.2781843431999995 
0.0 13.2781843431999995
0.0 13.2781843431999995
ITEM: ATOMS id type x y z fx fy fz
1   2     13.04386     13.19617     13.27182         0.011490      0.249091      0.946185
2   2      1.17726      1.86325      1.60907         0.659757     -0.752777     -0.363945
3   2     13.18706      0.04674      3.42321         0.136721     -0.342993     -0.251511
4   2      1.40213      2.02110      4.62180         0.044358      0.139478      0.965805
5   2      0.04480      0.20090      6.34436        -0.323511      0.560615      1.023762
6   2      1.85190      1.87694      8.09541        -0.215161     -0.705440      0.439292
7   2      0.19278      0.18587      9.84995         0.185907     -0.395193     -1.187647
8   2      1.65381      1.49771     11.90299         0.377035     -0.859319      1.562518
9   2     12.99046      3.42546     13.16075         0.296846     -1.189404      0.106577
10   2      1.46762      5.01764      1.37895         0.411552      0.051514      0.534334
11   2     12.86922      3.59348      2.97473        -0.261475      0.202219      0.224701
12   2      1.21133      5.06580      4.78557         1.219468     -0.294949      0.304635
13   2     13.22400      3.47346      6.83979         1.165703      0.187009     -1.205104
14   2      2.02794      4.77773      8.81848        -0.381583      0.345270     -0.522417
15   2      0.28728      3.04018     10.28415        -0.761066      0.954955     -0.687293
16   2      1.71177      4.93611     11.71349         0.339055      0.415610      0.152124
17   2      0.05643      6.73382     13.17800         0.144300      0.510823     -0.782927
18   2      1.44196      8.46888      1.58529         0.249872      0.466569     -0.359747
19   2     13.13809      6.68491      3.02362         0.418885     -0.607763     -0.192706
20   2      1.71920      8.07213      4.95703         0.078714     -0.475608      0.549436
21   2      0.38202      6.49840      7.05966         0.089790     -0.374563     -0.040664
22   2      2.11460      8.19552      8.30071         0.809297     -0.070079     -0.498485
23   2      0.33262      7.00165     10.29427         0.325178     -1.729383     -0.647384
24   2      1.61097      8.85413     11.71359         1.295253     -0.008981      1.302175
25   2     12.92602     10.40813     13.17339         0.295178     -1.051995      1.776832
26   2      1.59220     11.49429      1.73526        -0.494343      0.263501      0.355613
27   2     13.23758      9.76396      3.63450        -0.136227     -0.183933     -0.769096
28   2      1.44602     11.60779      4.96352         1.171776     -0.411267     -0.277172
29   2     13.23139      9.66730      6.67084         0.622953      0.065538      0.073234
30   2      1.67378     11.75679      7.81980         0.051470     -0.114947      0.611082
31   2      0.40937      9.87084      9.53555        -0.616775      1.335438      0.179438
32   2      1.40068     11.72509     11.63309         1.158514     -0.041229     -0.196453
33   2      3.51284     13.13226      0.41019        -1.714759      0.228610     -0.883589
34   2      5.18168      1.58092      1.76716        -0.273120      0.055654     -0.063747
35   2      3.12034      0.32217      3.12772        -0.175741     -0.285311      0.829177
36   2      5.23454      1.92246      4.82025        -0.776588     -0.305701     -0.354017
37   2      3.23907      0.15424      6.28934        -0.096268      0.912779     -0.144727
38   2      4.84481      1.82409      8.13623        -0.427032     -0.174669     -0.053765
39   2      3.20122     13.26018     10.07921        -0.138419      0.467238     -1.003000
40   2      4.92559      1.41085     12.03289         0.989418      0.343152     -0.333273
41   2      3.26491      3.30578      0.19168         0.376035     -0.494478     -0.328451
42   2      4.98143      5.07866      1.58177         0.492194     -0.217816      0.329008
43   2      3.08684      3.46249      3.09088         0.649475      0.049137      0.111246
44   2      5.10762      4.73112      4.73841        -0.958220     -0.045853      0.346345
45   2      3.28274      3.48696      6.44763        -0.201125     -0.003095     -0.485831
46   2      4.90934      4.84267      8.57173        -0.086518     -0.489089     -0.209367
47   2      3.39905      2.94932     10.45061         0.524094      0.750647     -0.708907
48   2      5.09420      5.15378     12.11649        -0.226497     -0.489454     -0.944866
49   2      3.42205      6.91615      0.32387        -0.942242      0.108504     -1.072643
50   2      5.12982      8.36804      1.85934         0.561176      0.190798     -0.193687
51   2      3.20062      6.49190      3.12864        -0.335467      0.056012      0.543732
52   2      4.91339      8.06592      4.78038        -0.770085      0.763452      0.728623
53   2      3.57297      6.29866      6.59046        -0.891189      0.403547     -0.030804
54   2      5.06437      8.23442      8.33334        -1.124166      0.867802     -0.614860
55   2      3.45163      6.71159     10.32326        -0.501167     -0.232283     -0.087070
56   2      4.73363      8.58652     11.76619         0.566647      0.017134     -0.441962
57   2      3.58435     10.21624      0.27538        -0.980054     -0.381191     -0.456383
58   2      5.09143     11.67259      1.91502         0.425196     -0.965538      1.512968
59   2      3.23154      9.75755      3.32155        -0.142355      0.869735      0.119966
60   2      4.83190     11.72459      4.92144         0.406860     -0.205645     -1.018121
61   2      3.52414      9.85041      6.30907        -0.831235     -0.235065      0.878386
62   2      4.91388     11.72629      7.92217        -0.266199     -0.398921      0.656204
63   2      3.27755     10.40399      9.79707         0.214971     -0.472688      0.012727
64   2      4.97029     11.87579     11.55019         0.597611     -0.695696      0.374007
65   2      6.77366     12.99742      0.25658         0.287109      0.160465     -0.590039
66   2      8.52305      1.31850      1.61503        -0.258303      0.545853      0.322606
67   2      6.75702     13.15754      3.46260         0.610832      0.437868      0.336169
68   2      8.32434      1.88558      5.03590        -0.118020     -0.082298     -0.190169
69   2      6.45200      0.11371      6.47809         0.913047      0.137134     -0.103444
70   2      8.26421      1.57104      8.16230         0.566261      0.553993     -0.220838
71   2      6.48018      0.12755      9.64831        -0.053953     -0.442074      0.596657
72   2      8.24291      1.43737     11.58809        -0.170231     -0.401330      0.022733
73   2      6.73560      3.21302      0.09645         0.129030     -0.374838      0.035844
74   2      8.48054      5.24827      1.49029        -0.568376     -0.968966      0.520275
75   2      6.71442      3.44031      2.91441         1.511886      0.101925      0.602780
76   2      8.47666      5.15042      4.96022        -0.201732     -0.874471      0.165492
77   2      6.70541      3.46706      6.66066         0.374049      0.318282      0.522739
78   2      8.08544      4.98070      8.73968         0.499076      0.134551     -0.698701
79   2      6.53597      3.06137      9.99056        -0.140185     -0.118087      0.694206
80   2      8.13451      4.80410     11.71199        -0.066433      0.049708     -0.685538
81   2      6.85458      6.94877     13.27678        -0.934497      0.047722     -0.385335
82   2      8.30833      8.47500      1.67534         0.468617     -0.517547      0.559263
83   2      6.54355      6.56257      3.50964         1.470001     -0.593536     -2.084298
84   2      8.30554      7.94180      5.03330         0.387837      0.608798      0.603549
85   2      6.42777      6.49828      6.62205         0.583261     -0.404681      0.351862
86   2      8.20928      8.27349      8.19560        -0.434672     -0.511312      0.597608
87   2      6.29217      6.68408     10.03468         0.958577     -0.237465      1.040266
88   2      8.18387      8.44943     11.15319         0.104788      0.120332      0.422299
89   2      6.64860     10.02342     13.26421        -0.034301      0.130489      0.037819
90   2      8.64257     11.46949      2.01946        -0.091214     -0.164214     -0.665661
91   2      6.86799      9.90737      3.46696        -1.074731     -0.008769      0.168050
92   2      8.37250     11.38579      5.11899         0.553714      0.510814      0.611565
93   2      6.56694      9.70760      6.44757        -0.376008      0.213999     -0.075345
94   2      8.01517     11.48499      8.08210         0.128376      0.367823     -0.316908
95   2      6.45664     10.05910      9.93795        -0.736523      0.433467     -0.433004
96   2      8.17644     11.61419     11.51689        -0.057204      0.087206     -0.706332
97   2      9.97727     12.89618     13.11863         0.140822      0.128627      0.673353
98   2     11.45609      1.42635      1.78453         0.069608     -0.164686     -0.538815
99   2      9.88810     13.27195      3.69028         0.096800     -0.103405      0.251171
100   2     11.50899      1.78607      5.01248         0.411053      0.466663     -0.172648
101   2     10.12797     13.27588      6.67896        -0.423755      0.166584     -0.068451
102   2     11.69879      2.15508      8.48283        -0.667510     -1.796477     -0.084103
103   2      9.93848     13.02657      9.55810        -0.965183      0.943341      0.381856
104   2     11.51349      1.23693     11.39249        -0.393902      0.839795      0.238977
105   2     10.03004      2.96394     13.20159        -0.173627      0.340417     -0.135228
106   2     11.35269      5.30201      1.07327        -0.255528     -0.470945      1.143078
107   2     10.03425      3.38132      3.14718        -0.693161      0.435854      0.079974
108   2     11.70889      5.05211      5.07322        -0.408007     -0.505446     -0.221169
109   2     10.04700      3.51253      6.57678        -0.689538     -0.051308      0.996290
110   2     11.76699      4.98807      8.56021        -0.203873      0.406959      0.844633
111   2      9.90557      3.20804     10.16988        -0.766433      0.230012     -0.231319
112   2     11.54029      4.92753     11.56959        -0.077514      0.844658     -0.969823
113   2      9.62981      6.78144     12.85652         0.846335      1.075631     -0.207510
114   2     11.68679      8.36439      1.51528        -0.715499      0.640991     -0.579677
115   2     10.09049      6.60052      3.24809         0.162576      0.256418     -0.160856
116   2     11.90179      7.72755      5.16882        -0.215113      1.310465      0.323566
117   2     10.13825      6.60958      6.93789        -0.785575     -0.483865      0.257497
118   2     11.86779      8.12902      8.55810        -0.804859     -0.009544     -0.422596
119   2      9.98244      6.72561     10.03208         0.029648     -0.438199     -0.336632
120   2     11.79719      8.48856     11.63529        -1.065553      0.125398     -0.340993
121   2      9.75113      9.82441     13.08030         0.646866      0.468862     -0.029054
122   2     11.52759     11.53779      2.14454        -0.036043     -0.223966     -0.603618
123   2     10.15555      9.47729      3.63727         0.012411      0.408848      0.023689
124   2     11.66949     11.41079      5.18236        -0.550998      0.500237     -0.031704
125   2     10.07020      9.61653      6.73467         0.266570      0.274738     -0.475109
126   2     11.77449     11.63839      8.21709         1.370717     -0.132474     -0.670296
127   2      9.99221     10.12087      9.58512        -0.454032     -0.811936      0.612849
128   2     11.63819     11.61889     11.24889        -0.251947     -0.062605     -0.742013
