ITEM: TIMESTEP
0
ITEM: NUMBER OF ATOMS
128
ITEM: BOX BOUNDS pp pp pp
0.0 13.2781843431999995 
0.0 13.2781843431999995
0.0 13.2781843431999995
ITEM: ATOMS id type x y z fx fy fz
1   2      0.15251      0.22772      0.07038         0.244027     -0.195246      0.255800
2   2      1.59500      1.93762      1.76549        -0.291012      0.114217      0.397091
3   2      0.16762     13.26250      3.54672        -0.230857      0.820078     -0.580219
4   2      1.73859      1.95273      4.85577        -0.166771     -0.461595      0.139474
5   2      0.04019     13.12232      6.39212        -0.291394     -0.494800      0.245694
6   2      1.70539      1.49287      7.87122         0.277891      0.113291      0.830654
7   2      0.42482     13.03088     10.02302        -1.096558      0.873969     -0.548685
8   2      1.72146      1.85061     11.55479        -0.398076      0.305130      0.498872
9   2     13.05797      3.41447      0.02456         0.517707     -0.399382     -0.297540
10   2      1.52990      4.83473      1.69498        -0.209238      0.521168      0.373415
11   2     13.01175      3.46676      3.64651         0.834757     -0.152050     -0.844905
12   2      1.49397      5.06436      5.34152         0.143735      0.509223     -0.539878
13   2     13.16053      3.22325      6.78445         0.168342      0.004045     -0.470662
14   2      1.63441      5.02277      8.17725         0.051105      0.304875      0.078095
15   2     13.25099      3.04718      9.65391         0.195058      0.250140      0.175448
16   2      1.58637      4.65389     11.17339        -0.157863      0.718915      0.786069
17   2     13.15199      6.54130      0.11389        -0.130705     -0.539284     -0.983531
18   2      1.56365      8.09121      1.50407         0.621932     -0.197409      0.038216
19   2     13.19079      6.64009      3.43952         0.006970     -0.468427     -0.056484
20   2      1.66147      8.19471      5.01129         0.412880     -0.350603      0.142049
21   2     13.06173      6.97238      6.78485         0.354135     -0.461137      0.495129
22   2      1.64744      8.36754      8.50367         0.309742      0.093214     -0.308509
23   2      0.00814      6.70520      9.97167        -0.196312     -0.002596     -0.339224
24   2      1.69374      8.25175     11.51029         0.126467      0.028287      0.652051
25   2      0.04746      9.96017      0.04840        -0.067460     -0.880183     -0.361021
26   2      1.52292     11.66189      1.72403         0.795150     -0.039015     -0.171828
27   2      0.13179      9.77658      3.32982        -0.957580     -0.573285     -0.684663
28   2      1.68026     11.38939      4.68824         1.148592      0.055503      1.224401
29   2     13.18107      9.78217      6.58457         0.438751      1.034049      0.253181
30   2      1.83690     11.54269      8.11923        -0.888078      0.204369     -0.096918
31   2      0.19308     10.21818     10.05531         0.179715     -0.730095      0.555013
32   2      1.74980     11.63199     11.99629         0.092071      0.147378     -0.240027
33   2      3.22509      0.29630      0.12404         0.185655     -0.034864      0.403037
34   2      5.10480      1.88870      1.77986        -0.601577      0.220798      0.283860
35   2      3.32984      0.18512      3.19024        -0.270781      0.080843      0.617945
36   2      5.12867      1.71079      5.05762        -0.664097     -0.164501     -0.348595
37   2      3.21945     13.13375      6.28966         0.319788     -0.105335     -0.701539
38   2      4.79466      1.34426      8.06021        -0.081610      0.583054     -0.129658
39   2      3.14896      0.04216     10.14052         1.063861     -0.043429     -0.601252
40   2      4.93933      1.79598     11.69399        -0.104282      0.370442     -0.346854
41   2      3.33556      3.44737      0.05916         0.005475     -0.371527     -0.367088
42   2      5.11883      5.03947      1.48755        -0.316010     -0.112611      0.381147
43   2      3.45177      3.55019      3.35304         0.139460      0.109959      0.142746
44   2      4.96910      5.24048      5.21645         0.491591     -0.083137     -0.339478
45   2      3.45517      3.42067      6.44716        -0.245838     -0.233520      1.104450
46   2      5.14174      5.09763      8.37334         0.072462     -0.399067     -0.289336
47   2      3.33111      3.22891      9.61971         0.448040     -0.375581     -0.284244
48   2      5.19018      4.76603     11.27249        -0.124589     -0.266239      0.318939
49   2      3.15899      6.21771     12.99141        -0.277251      0.319750      0.082042
50   2      5.02677      7.87860      1.40978        -0.116509      0.593123      0.387576
51   2      3.28720      6.44934      3.32391        -0.480610      0.183176     -0.322263
52   2      5.02373      8.11871      4.77875         0.124525      0.776712      0.106179
53   2      3.53235      6.97981      6.85503        -0.560928     -0.410332      0.240723
54   2      5.09467      8.58998      8.56992         0.153773      0.103172      0.016180
55   2      3.43739      6.51817      9.92056        -0.539794      0.492358      0.157501
56   2      4.79716      8.16735     11.83579         0.381675      0.177966     -0.714740
57   2      3.40508      9.96688      0.06789        -0.292804     -0.602195      1.146364
58   2      4.96830     11.82699      1.78503        -0.091863     -1.014764     -0.044014
59   2      3.23192      9.61354      3.06145         0.635123      0.255931     -0.105336
60   2      4.87850     11.37779      4.73783        -0.258510      0.198782     -0.432756
61   2      3.31285      9.84741      6.61054         0.263136     -0.375966     -0.587261
62   2      4.68923     11.61619      8.26508         1.136480      0.415651     -0.052775
63   2      3.31012     10.15712     10.10716        -0.086998     -0.615592      0.393516
64   2      4.80439     11.75049     11.87529         0.419457      0.677757     -0.052729
65   2      6.42936      0.23654      0.19199         0.343109      0.408029     -1.044558
66   2      8.37483      1.76459      1.87787        -0.510020      0.606399     -0.297702
67   2      6.70991      0.07599      3.50065        -0.439426     -0.018763     -0.358413
68   2      8.26509      1.74802      5.12066         0.125668     -0.292278      0.190590
69   2      6.63721     13.11806      6.46703        -0.179227     -0.276743      0.200273
70   2      8.47201      1.19792      8.27642        -0.375986      0.228257     -0.704413
71   2      6.35917      0.17961      9.93667         0.404293     -0.799506      0.413037
72   2      8.29957      1.78873     11.70429         0.062699     -0.538230     -0.161846
73   2      6.75359      3.39601      0.01279        -0.201562     -0.305575     -0.217294
74   2      8.44211      4.93240      1.50135         0.239224      0.480835      0.697185
75   2      6.64200      3.45207      3.44826         0.227168      0.390765     -0.056018
76   2      8.25219      5.02491      5.18142         0.271201      0.508975      0.100871
77   2      6.58481      3.38451      6.71479         0.102888     -0.267272      0.384870
78   2      8.39333      4.94703      8.30363        -0.104137      0.495571      0.249569
79   2      6.87181      3.03285      9.62724        -0.758217     -0.030439      0.085379
80   2      8.41994      4.71528     11.33769         0.193812      0.210875      0.021065
81   2      6.79293      6.45966     12.96251        -0.005291     -0.303286     -0.196026
82   2      8.35438      8.09600      1.22378         0.411906     -0.001934      0.691263
83   2      6.69037      6.41607      3.31645         0.666949      0.538859     -0.303568
84   2      8.25677      8.32705      5.13300        -0.209699     -0.057673     -1.283388
85   2      6.70616      6.85440      6.84414        -0.070971      0.003047      0.306649
86   2      8.15384      8.71141      8.60096         0.327555      0.022593     -0.634578
87   2      6.76376      6.81751     10.05337        -0.375818     -0.632287     -0.293479
88   2      8.34324      8.42041     11.55189         0.455115     -0.436342      0.514522
89   2      6.69641      9.94910     13.26872        -1.060342     -0.339256      0.395094
90   2      8.00059     11.82059      1.51371         0.933645     -0.563872      0.742179
91   2      6.71511      9.72481      3.12810        -0.261515     -0.175681     -0.397678
92   2      8.27603     11.44139      4.75991        -0.423096      0.162228      0.074266
93   2      6.56040     10.09240      6.47630        -0.355227     -0.419963      0.640766
94   2      8.10681     11.62199      8.31120         0.045947     -0.186742      0.373399
95   2      6.58122     10.29125     10.40180        -0.679291     -0.458407     -1.082141
96   2      8.09406     11.89709     11.89719         0.345665      0.577810      0.079323
97   2      9.90105      0.24504      0.13087         0.436528     -0.496920     -0.223122
98   2     11.73559      1.39412      1.90895        -0.267224      0.724566      0.189618
99   2      9.74552     13.23963      3.35449         0.655097      0.068195     -0.097877
100   2     11.55169      1.62408      5.02166        -0.405677     -0.700003      0.277325
101   2     10.02038     12.88424      6.58943         0.384500      0.569985     -0.240400
102   2     11.72539      1.34995      8.26475        -0.545817     -1.245192     -0.272745
103   2      9.84231     13.08840     10.18991         0.695439      0.472427     -0.268146
104   2     11.84539      1.49545     11.56539        -0.672898      0.314542     -0.429958
105   2     10.17137      3.20606      0.14441        -0.190879     -0.358372     -0.754122
106   2     11.52009      4.85998      1.80534        -0.117378      0.985838      0.290524
107   2      9.90601      3.44449      3.63353         0.129514     -0.022593     -0.535556
108   2     11.57939      4.99840      5.33075        -0.581857      1.035326     -0.087411
109   2      9.92325      3.21776      6.77130         0.217477     -0.175829      0.049752
110   2     11.63879      5.05672      8.25016        -0.335865     -0.033037      0.342074
111   2     10.01480      2.97414      9.73716         0.409105      0.399173      0.425863
112   2     11.74169      4.86170     11.29619        -0.182235     -0.527201      0.096284
113   2     10.12557      6.40165     12.91099        -0.235839      0.176629      0.497862
114   2     11.66119      8.26123      1.67638        -0.445710      0.317819     -0.276108
115   2      9.92306      6.79615      3.28948        -0.375244     -0.462350      0.172529
116   2     11.49479      8.35038      5.01529        -0.536282     -0.014898     -0.864867
117   2      9.79154      6.87413      6.80317         0.573213     -0.138002      0.529364
118   2     11.42439      8.76194      8.64658         0.443098     -1.292527     -0.888329
119   2     10.07327      6.71795      9.89010        -0.555850     -0.170771      0.121633
120   2     11.65899      8.38726     11.61619         0.381943     -0.039546      0.066434
121   2     10.01565     10.10958     13.15450        -0.172850     -0.150225      0.638760
122   2     11.75749     11.57619      1.56059        -0.389927      0.612598      0.524465
123   2      9.76289      9.98917      2.94108         0.105349     -0.489306     -0.193969
124   2     11.56529     11.52459      4.55455        -0.026551     -0.334386      0.596588
125   2      9.86874     10.08844      6.46472         0.555377     -0.305587      1.025693
126   2     11.69219     11.43209      8.43853        -0.098084      1.612742     -0.765270
127   2      9.90421     10.24717     10.25788        -0.462443      0.581223      0.207879
128   2     11.78619     11.81459     11.78769        -0.098619      0.052124      0.037189
