ITEM: TIMESTEP
0
ITEM: NUMBER OF ATOMS
128
ITEM: BOX BOUNDS pp pp pp
0.0 13.2781843431999995 
0.0 13.2781843431999995
0.0 13.2781843431999995
ITEM: ATOMS id type x y z fx fy fz
1   2      0.34868     13.19769      0.17825        -0.890967      0.605126      0.384856
2   2      1.63255      2.14469      2.26413         0.545890     -0.953601     -0.266707
3   2      0.26792     12.89339      4.11200         0.291499     -0.510814     -1.172872
4   2      1.31576      1.96435      5.06373         0.628709     -0.128797      0.399997
5   2     13.23073     13.11219      6.85370         0.922431      0.388871     -0.153623
6   2      1.71107      1.74461      8.08772        -1.059266      0.472647     -0.499833
7   2      0.02377      0.03721     10.10576        -1.137927      0.202771     -0.846286
8   2      1.41397      1.70779     11.68059        -0.591254      0.738556     -1.134129
9   2     13.14089      2.99543      0.36230        -0.175957      0.374790     -0.318394
10   2      1.54338      5.10127      1.65447        -0.887983      0.107735      0.839491
11   2     12.97559      3.61020      3.43742         0.240438     -0.074515     -0.222226
12   2      1.68181      5.06068      4.86008        -0.392104      0.401988      0.189109
13   2     13.01429      3.78261      6.56204         0.984526     -2.067342     -2.130333
14   2      1.53076      4.64093      8.26791         0.887992      0.774800      0.533801
15   2     12.89219      2.97014      9.86698         1.122868     -0.010280      0.833831
16   2      1.09870      4.69105     11.24309         0.499885      0.510584      0.185895
17   2     12.99819      6.65031     12.66169         0.126332     -0.507220      0.755527
18   2      1.48417      7.89644      1.00870         0.471953      0.543168      0.520444
19   2     13.10965      7.04441      3.51175         0.276052     -0.735932     -1.024927
20   2      1.95336      8.11861      4.95134        -1.137097      0.893986      0.096151
21   2     13.08427      6.95855      6.76625         0.595029     -0.321649      0.152875
22   2      1.82912      8.59823      8.46618        -0.221273     -1.776166      0.325990
23   2     12.91709      7.08210      9.93496         1.708949     -0.781839     -0.833907
24   2      1.92114      8.41310     11.38989        -0.104103      0.177544      0.526193
25   2      0.29574     10.57367     12.84189         1.192062     -1.581631     -1.414979
26   2      2.07021     11.48989      1.91546        -1.457448      2.086093     -0.367783
27   2      0.02217      9.95569      3.51678         0.931567     -0.238986      0.685134
28   2      2.09185     11.10159      5.64282        -0.980630     -0.252220     -1.461693
29   2     13.27549      9.79900      6.87700        -0.753691      0.033123     -0.390355
30   2      1.90691     11.46339      8.20928        -0.295842      0.839683      1.137653
31   2      0.03365      9.86899      9.89830        -0.779695      0.988386      0.914398
32   2      1.98060     11.92769     11.12579         0.296248     -0.802697     -0.268406
33   2      2.97642      0.22080     13.12111         0.664442     -1.753263      0.266638
34   2      4.43491      1.63659      1.34032         1.291721      0.663008      1.749606
35   2      3.45309      0.36371      3.66388        -0.750165     -0.072740     -0.346454
36   2      5.29348      2.21407      4.92128         0.212958     -0.396268      0.918769
37   2      3.45854      0.25819      6.46162         0.082753      0.048675     -0.004067
38   2      4.94624      2.08340      8.28131         1.586141      0.383512     -1.115042
39   2      3.46013      0.28249      9.44771        -1.470323     -0.089638      1.950953
40   2      4.82073      1.75949     11.67939         0.683661     -0.636230     -0.047037
41   2      2.86479      3.41994     13.18603         0.377902     -0.578139      0.156754
42   2      4.93849      5.17823      1.35059        -0.676616      0.445723      0.212328
43   2      3.66978      3.74597      3.36315        -0.337127     -0.116267     -0.104782
44   2      5.37819      5.26514      5.30059        -1.242290     -1.163178     -0.893659
45   2      3.42123      3.40217      6.33708        -0.768029      0.678792      0.710290
46   2      4.89242      4.97423      8.40142         0.266788     -0.062933     -0.313280
47   2      3.22460      3.13884     10.07039        -0.807065      1.046744     -0.227698
48   2      5.02446      4.77845     11.55859        -0.816414     -0.400536      0.050216
49   2      3.03476      6.05828     12.85379        -0.396517      1.723123     -0.377913
50   2      4.83021      8.34056      1.08952        -0.084214     -0.806645     -0.470857
51   2      3.44166      6.59023      3.19882         0.003045      0.090322     -0.408301
52   2      5.03264      7.77995      5.15855         0.893378      1.838301     -0.905453
53   2      3.14835      6.66384      6.76793        -0.163802     -1.896547      1.418927
54   2      5.26382      7.89308      8.79769         0.712528     -0.962217      0.557354
55   2      3.07761      6.41843      9.95121        -0.004833     -0.278203     -0.298363
56   2      5.21222      7.57677     11.75579        -0.292723      1.153348     -0.419073
57   2      3.28481     10.30921     12.93689         0.312443     -0.582905      0.385645
58   2      4.87203     11.82959      1.68415        -0.167220     -0.394287      0.299073
59   2      3.09212      9.40480      2.85160         0.769020     -0.905068      0.975145
60   2      4.55547     11.37539      4.89513         1.621720     -0.371041     -0.416680
61   2      3.89969      9.27718      7.01369         0.355022      2.205734     -0.976101
62   2      5.21938     12.14519      8.32585         0.540633     -1.895100     -1.948195
63   2      3.84533     10.14551      9.71652        -0.154175     -0.220265      0.848559
64   2      4.97479     12.00449     11.48119        -0.322800     -0.138912     -0.937679
65   2      6.53167     13.16729     13.23156         0.256309      0.406326      1.523214
66   2      8.18130      1.42445      1.86360        -0.905525      0.250771      0.267375
67   2      6.29948      0.18670      3.50922         0.206272     -0.615895     -1.649886
68   2      8.64746      1.76999      4.67451        -1.963331      0.398368      1.107765
69   2      6.63261      0.08910      6.09050        -0.853656      0.943398      1.497111
70   2      7.96855      1.77100      7.85860         0.645771      0.220956     -0.101181
71   2      6.99109      0.15908      9.71841        -0.627514      1.263571      1.756625
72   2      7.94257      1.74713     11.97719         1.030531     -2.110176     -0.234101
73   2      6.34172      3.27527      0.18842         0.589197     -0.307247      0.424081
74   2      8.57083      4.61351      1.63807        -0.246776      0.549355     -0.382650
75   2      6.56738      3.58444      3.05812         0.080089     -0.296755      0.068371
76   2      8.53592      5.21896      4.49836        -0.286431     -0.653977      0.660621
77   2      7.18618      3.95812      6.53670        -1.113452     -1.324874      0.194185
78   2      8.63483      4.86867      8.60854         0.215036      0.416825      0.305861
79   2      6.77827      3.28104     10.12902        -0.435807     -0.507509     -1.328276
80   2      8.67977      4.23223     11.97259         0.320478      2.096117     -0.088142
81   2      7.09253      6.25384     13.26349        -0.754540      0.440028      0.006840
82   2      8.42337      8.54824      1.49438        -1.045013      0.817987      0.325596
83   2      6.69850      6.55846      2.97722        -0.130966      0.763399     -0.036233
84   2      8.62571      8.32052      4.90361        -0.904567      0.790777     -0.706473
85   2      7.32584      6.74142      6.73234        -1.824274      0.222455      0.245135
86   2      8.18696      8.29470      8.81911        -0.369254     -2.326275      0.250153
87   2      7.00344      6.04498     10.28646         0.366478      1.427946     -0.014931
88   2      8.47117      8.53772     12.04019        -0.728081      0.611384     -1.440549
89   2      6.47079     10.23128     13.12619         0.173016     -0.162401      0.035795
90   2      7.96177     11.52079      2.28085        -0.439090     -0.008693     -0.431310
91   2      6.16952      9.37051      3.19436         0.475553      0.837382      0.516815
92   2      7.85649     11.25679      5.20814         0.581913     -0.454658     -2.776443
93   2      6.75274      9.77963      7.04046        -1.733759     -1.210236     -0.191582
94   2      8.14766     11.90209      7.89386        -0.490816      0.681435      0.434729
95   2      6.68930     10.13230      9.98767        -0.549911      0.503874      0.952455
96   2      8.28814     11.92929     11.51959         0.580428     -0.535844      0.476151
97   2      9.84520      0.00600      0.35080        -0.395120     -1.289727     -0.329336
98   2     11.77359      1.07120      1.94364         1.105488     -0.351448      0.892227
99   2      9.98449     13.01219      3.62026         0.226453     -0.712651     -0.831358
100   2     11.73829      1.63018      5.18732        -0.096079      0.382170     -0.468180
101   2      9.89091      0.08327      6.41362        -0.040911      0.080090      0.896794
102   2     11.54359      1.63606      8.22232        -0.123223     -0.449481     -2.346186
103   2      9.88422      0.06384      9.50562        -0.563585     -0.461056      1.194548
104   2     11.30299      1.33749     11.81399         1.328528     -0.715681     -1.353559
105   2     10.21686      2.75226      0.42878        -0.117831      0.895381     -0.059498
106   2     11.56069      5.09470      1.57968         0.607389      0.537596     -0.285968
107   2     10.19428      3.13378      3.14475         1.127633      0.333053      0.579833
108   2     11.39009      5.18024      4.91374        -0.075230      0.957367     -0.574722
109   2      9.81585      3.67743      6.58590         1.688846     -1.428538     -0.464964
110   2     11.84649      4.97656      8.37147        -1.801203      1.508025      1.716777
111   2      9.80968      2.80611      9.95029         0.066632      0.164167     -0.017556
112   2     11.56029      4.49724     11.71089        -0.380019     -0.122980      0.500944
113   2      9.75430      6.55001      0.00720         1.894951     -0.131085     -0.230476
114   2     12.07419      8.67178      1.07291        -0.501183     -0.969794      0.333766
115   2      9.83643      6.86843      2.94504         1.773409      0.320825     -0.244895
116   2     11.46859      8.44384      5.09438        -0.415208      0.370009      0.182379
117   2      9.94191      6.65239      6.74305         0.556904     -1.188924     -0.783773
118   2     10.91891      8.26535      8.42851         2.300674      1.035092      0.337822
119   2     10.22601      6.39435     10.20587        -1.365166     -0.909370      0.530503
120   2     11.26899      8.45563     11.51569        -0.461444      1.655419      0.897743
121   2      9.93917     10.55163      0.24254        -2.055845     -1.432736      1.643883
122   2     12.14159     11.31619      1.55448        -0.667247      2.222498      1.560070
123   2     10.20356     10.11637      3.18884        -0.210243     -0.357639      0.034602
124   2     11.46989     11.43599      5.35214         0.979611     -0.292536     -0.407172
125   2      9.70356     10.05460      6.81513         0.622354     -0.821955     -0.790146
126   2     11.74469     11.65519      8.48311         0.045306     -0.461006     -0.111556
127   2      9.61993     10.31751      9.52763         0.377067      1.113829      2.321707
128   2     11.19939     11.36179     11.56029         1.672951      1.440207     -2.255888
