ITEM: TIMESTEP
0
ITEM: NUMBER OF ATOMS
128
ITEM: BOX BOUNDS pp pp pp
0.0 13.2781843431999995 
0.0 13.2781843431999995
0.0 13.2781843431999995
ITEM: ATOMS id type x y z fx fy fz
1   2     12.93326      0.02776      0.17418         0.510815      0.436187     -0.666153
2   2      1.54535      2.03236      1.52779        -0.269240      0.439014     -0.140910
3   2     13.03436      0.42496      2.85848        -0.200414     -0.569049      1.020732
4   2      1.42234      1.34967      4.98447        -0.359728      1.498907     -0.264793
5   2     13.13379     13.06262      6.53070        -0.250043      0.117303      0.044814
6   2      1.45583      1.39574      8.53037        -0.374970      0.184092     -0.337308
7   2     12.96427     13.19357     10.37243         0.520979      0.784051     -0.557257
8   2      1.54235      1.80239     11.91959        -0.530855     -0.430071     -0.323489
9   2     12.99919      3.50861     13.25424         0.261233      0.859157      0.635536
10   2      2.01791      4.98016      1.69377        -0.137602     -0.150819     -0.740306
11   2     13.18633      3.85415      3.19534        -0.037578     -1.015372     -0.323431
12   2      1.79073      4.96737      5.09350        -0.424966     -0.167681     -1.066468
13   2      0.10075      3.25342      6.60522        -0.465846     -0.157066      0.093760
14   2      1.75583      4.58685      8.56359        -0.051706      0.773625     -0.167120
15   2     13.19452      3.09770      9.95749        -0.427993      0.472660      1.024636
16   2      1.82089      4.63482     11.73979        -0.358258      0.315027      0.524149
17   2      0.43282      6.71123     13.08701        -1.075556     -0.913805      1.184086
18   2      2.15352      8.16699      1.51991        -0.581361     -0.567470      0.068215
19   2      0.07986      6.61654      2.89875        -0.042699      0.419046      0.319818
20   2      1.84605      8.14462      4.78273        -0.108144     -0.043118      0.087203
21   2      0.39183      6.69777      6.90501        -0.629298     -0.167990     -0.244305
22   2      1.77727      8.30607      8.67287         0.707687      0.490673      0.209846
23   2      0.16655      6.38154     10.26388         0.483320      0.549966     -0.426855
24   2      1.99735      8.18148     11.60549         0.093460      1.656799     -0.354407
25   2      0.07876      9.86660      0.26151         0.963597      0.515838     -0.822182
26   2      1.72046     11.80189      1.72200        -0.606342      0.576130     -1.004557
27   2      0.31386      9.73367      3.05930        -0.466088     -0.316288      0.118172
28   2      1.44572     11.92389      4.49367         0.275055     -0.507002      0.034803
29   2      0.27737     10.01626      6.25581        -0.595152     -0.862395     -0.172334
30   2      1.18685     11.41489      8.31050         1.707391      0.510716      1.618713
31   2     13.16288      9.92126     10.74512         0.859572      0.611950      0.278139
32   2      1.53216     11.93959     11.90319        -0.024870     -0.246261      0.755900
33   2      3.24000      0.29872      0.12233         0.809921     -0.469785      0.527285
34   2      5.49104      1.63024      1.88245        -0.817792      0.298840      0.285070
35   2      3.25845      0.53989      3.15040         0.070347     -1.848388     -0.673029
36   2      4.89002      1.47331      5.28331        -0.914175      1.557066     -1.158489
37   2      2.91239     13.17512      6.79652        -0.320753      0.050687     -0.762312
38   2      4.82875      1.37042      8.30301        -0.612250      1.197891     -0.584346
39   2      3.25602      0.13579     10.09395        -0.366109     -0.750802      0.772817
40   2      5.12748      1.47449     11.70299        -0.017733     -0.060276      0.013302
41   2      3.86159      3.33150      0.19167        -0.224963      0.043891      0.131911
42   2      5.32388      4.91217      2.14011        -0.061782     -0.733430     -1.155310
43   2      3.40718      3.11397      3.32418         0.087187      1.527392      0.607580
44   2      5.02346      4.74544      4.98978        -0.569712     -0.329023      0.251151
45   2      3.02997      3.06558      6.66848         0.667514     -0.226700      0.021678
46   2      4.81300      4.90234      8.35802        -0.771795     -0.885167     -0.938082
47   2      3.36464      3.06297     10.24348         0.713067     -0.179266     -0.756074
48   2      5.43648      4.76464     11.61679        -0.597113     -0.125833     -0.099810
49   2      3.67615      6.42844     12.97595         0.080136     -0.139511      0.903212
50   2      5.02543      8.24820      1.53669         0.068599     -0.020805      0.393102
51   2      3.57246      6.52097      3.34993        -0.495287      0.339918      0.391313
52   2      4.76119      8.42519      5.02186        -0.485498      0.347767      0.327894
53   2      3.16565      6.52426      6.77772         0.954280      0.513666      0.303278
54   2      4.60852      8.47781      8.37606        -0.113418      0.099333     -0.408575
55   2      3.39890      6.40675     10.16319         0.284498     -0.227299     -0.692348
56   2      5.02737      8.51772     11.37099        -0.314136     -0.361458      0.357126
57   2      3.42726     10.03280     13.27027         0.126732      0.752479     -0.436636
58   2      5.26941     11.84089      1.60959        -0.971365     -0.083273      0.026683
59   2      3.41239     10.16670      2.95284         0.302694     -0.928913      0.548801
60   2      4.51073     11.88169      4.66511        -0.019082     -0.478168      1.209704
61   2      2.94913     10.18367      6.59050         1.248583     -0.375390     -0.277875
62   2      4.73707     11.83909      8.12083         0.172992     -0.972236      0.803969
63   2      3.17111     10.58673     10.30323         0.397210     -0.900191     -0.697978
64   2      5.17103     11.91989     11.90559        -0.362498     -0.131867     -0.107802
65   2      7.05795      0.06112      0.24623        -0.564320     -0.402217     -1.380733
66   2      8.37712      1.60342      2.06379         0.578653      0.187024     -0.354876
67   2      6.67113     13.07310      3.65988         1.197884      0.280948      0.190215
68   2      8.66697      1.56067      5.23647        -0.978460      0.396794     -0.147163
69   2      6.53737      0.12309      6.63600         1.700517     -1.727126      0.001297
70   2      8.30460      1.58752      8.08619         0.480074      0.107960      0.393881
71   2      6.63386     13.23496      9.83732         0.401793     -0.205687     -0.412127
72   2      8.40847      1.62270     11.25649         0.292719     -0.262051     -0.155185
73   2      6.92013      2.86580     13.16749         0.195373      1.367900      0.417834
74   2      8.00115      5.09334      1.62026         0.350314     -0.271900      0.395267
75   2      7.13299      3.20339      3.64557        -1.400044      1.028785      1.030743
76   2      8.42050      5.23093      5.31137        -0.430808     -0.970418      0.097923
77   2      6.71406      3.44349      6.70336        -0.368390     -0.872213     -0.185050
78   2      8.24686      5.11178      8.23189         0.434832     -0.121708      0.108388
79   2      6.36110      3.07033      9.68282         0.938839     -0.092904      0.006430
80   2      8.14002      4.83739     10.99119         0.456513      0.172254      0.484020
81   2      6.55386      6.72175     13.14014         0.250927      0.198948     -0.098587
82   2      8.16035      8.33359      1.72227        -0.339221     -1.077970     -0.148882
83   2      6.54809      6.83495      3.66036         0.333508     -0.100289     -0.586129
84   2      8.31350      8.21879      5.17696        -0.241897      1.307172      0.924709
85   2      6.39856      6.53419      6.58402        -0.644579      0.845331      0.481468
86   2      7.97640      8.44698      8.11897         0.265235      0.270329     -0.316175
87   2      6.40680      6.62718      9.57229        -0.201223      0.443997      0.537026
88   2      7.94420      8.28365     11.04659         0.368634      0.312423      0.955716
89   2      6.63389      9.97890     13.25168         0.184531     -0.367125     -0.446147
90   2      8.38509     11.36059      1.66012        -0.032220      0.099288      0.678643
91   2      6.55693      9.95726      3.29974        -0.176317      0.049894      0.784111
92   2      8.45976     11.27959      5.18046         0.137259      0.013814     -1.110052
93   2      6.23092     10.19756      6.49532         0.095062     -0.292872     -0.064870
94   2      8.37938     11.52609      7.84022         0.013461      0.343479      1.419930
95   2      6.33277     10.23946      9.72576         0.277558      0.323322     -0.462864
96   2      8.17004     11.54709     11.31939         0.960334     -0.060447      0.445962
97   2      9.72542      0.11415      0.27149         1.021610     -0.178297     -1.162309
98   2     11.23409      2.07031      1.61577         0.095924      0.252274      0.071043
99   2      9.90594     13.06131      3.37402         0.621956     -0.590994      0.213932
100   2     11.38019      1.93875      4.69985         1.442917     -0.193907      0.389776
101   2     10.39755     13.15957      6.34477        -0.042165     -0.952819      0.683671
102   2     11.74169      1.51023      8.24852         0.741980      0.423202     -1.127710
103   2     10.09095      0.06071      9.63520        -1.104730     -0.986618      0.565928
104   2     11.41319      1.79444     11.89019        -0.276577     -0.587876     -0.877849
105   2      9.67273      3.56170     12.99004        -0.462653      0.050017      0.653183
106   2     11.06269      5.36028      1.56182         0.910533     -0.267517     -0.296707
107   2      9.87649      3.70624      3.41445        -0.211916      0.536808     -0.024236
108   2     11.88849      5.18634      5.15621        -0.193945      0.232618      0.239092
109   2     10.14156      3.56403      6.85637         0.234328     -0.395746     -0.657901
110   2     11.87809      5.11706      8.44846         0.185235     -0.297974     -0.443830
111   2     10.11615      3.24362      9.62416        -0.223046      0.206066      0.790957
112   2     11.40829      5.12168     11.58479         0.061828     -0.271050     -0.195890
113   2      9.37759      6.54620     13.04709         0.090837      0.737260     -0.645003
114   2     11.62909      8.20104      1.33089        -0.742727     -0.696681      0.574530
115   2      9.87660      6.66824      3.68498         0.950872      0.477647     -1.353261
116   2     11.93629      8.15991      5.02067        -0.067350     -0.143246     -0.335420
117   2     10.19997      6.74584      6.89797         0.217872      0.537293     -0.433622
118   2     12.37239      8.63619      8.56334        -0.609709     -1.212541     -0.950721
119   2     10.03289      6.85118      9.64888        -0.448498     -0.540106      0.191634
120   2     11.48169      7.96207     11.68999         0.185477      0.113483      0.732074
121   2      9.70246      9.69549     13.15003         0.021338     -0.096372     -0.866916
122   2     11.39409     11.47179      1.35205        -0.258900     -0.660690      1.061019
123   2      9.96487      9.60976      3.24825         0.571953      0.269273      0.337464
124   2     11.77919     11.22169      4.61525        -0.573622      0.614009     -0.349069
125   2     10.32217      9.74597      6.83305        -0.164236     -0.252443     -0.349219
126   2     11.86339     11.36609      8.51456        -1.488803      0.628299     -0.104124
127   2     10.11346      9.59791      9.87918        -0.608328      1.095634      0.042673
128   2     11.17019     11.67159     11.65179        -0.726698     -0.371644      0.608229
