ITEM: TIMESTEP
0
ITEM: NUMBER OF ATOMS
128
ITEM: BOX BOUNDS pp pp pp
0.0 13.2781843431999995 
0.0 13.2781843431999995
0.0 13.2781843431999995
ITEM: ATOMS id type x y z fx fy fz
1   2     12.95989      0.22281     13.08069         1.217024      1.100298     -0.336899
2   2      1.27830      1.58766      1.55918         0.513272      0.883780      0.280634
3   2     12.91869      0.00700      3.34102         0.184178     -0.676250     -0.583290
4   2      1.23080      1.46591      5.01492         0.190798      0.731508      0.021914
5   2     13.22938      0.01706      7.10083        -0.302623      0.412413     -1.298205
6   2      1.45775      1.47620      8.62888         0.509633      1.248161     -1.327711
7   2      0.02400     12.94909     10.10656        -1.607074      1.262499     -0.770475
8   2      1.73601      2.12945     11.10199        -0.988292      0.108137      2.334858
9   2      0.21253      3.44136     13.00109        -0.594819      0.147952      0.682086
10   2      1.32079      4.93396      1.98560         0.817654      0.570124     -1.253426
11   2     13.25969      3.25871      3.38105        -0.575848     -0.503493      0.819455
12   2      1.85953      4.69054      5.18612        -0.805283     -0.023976     -0.474706
13   2     12.97189      3.11261      7.04006         0.455125     -0.614640     -0.943039
14   2      2.06253      4.98861      8.17988        -0.011173     -0.594345     -0.424842
15   2     12.89959      3.53200      9.62258         0.627464      0.278675      1.038039
16   2      1.73259      5.02504     11.35349         0.858649     -0.089967     -1.203181
17   2      0.09680      6.37199     12.92109        -1.163928      0.058461      1.331039
18   2      1.16523      7.84651      2.02844         0.475791      0.323843     -0.171515
19   2     13.02339      6.51957      3.96224         0.534948     -0.256664     -0.804021
20   2      1.58384      8.27925      5.00669         0.420387     -0.437925      0.027584
21   2      0.17927      6.36868      6.75009        -0.110186      0.515835     -0.912688
22   2      2.20799      8.14676      8.02199        -0.054660      0.094278      0.257587
23   2      0.39656      6.75748      9.43018        -0.349201     -0.467132      1.720578
24   2      1.78396      8.00968     11.56569         0.046241      1.160000     -1.231646
25   2      0.23740      9.65580      0.18491         1.507382      0.197727      0.197418
26   2      1.29842     11.97159      1.40878         1.593556     -0.994323      0.043368
27   2      0.18495     10.20127      3.56799        -0.908066     -0.811451     -1.258426
28   2      1.45515     11.81449      5.15222        -0.277995      1.748097     -0.343331
29   2      0.31689      9.88975      6.94836         0.643697     -0.147536     -0.150528
30   2      1.91222     11.64379      8.57220        -0.223827     -0.146971     -0.552954
31   2      0.17943      9.83078      9.96561         1.044326      0.489676      0.211046
32   2      1.43839     11.69659     11.79589         1.617462     -1.251744      0.833002
33   2      3.14196      0.24988     13.24329         0.477447      0.371063     -0.075376
34   2      5.26973      1.61561      1.76662        -1.666225      1.392632      0.376772
35   2      2.91017     13.19316      3.09361         0.942506      0.806607      1.033143
36   2      4.86072      1.56535      4.84252         0.776430     -1.005868     -0.324606
37   2      3.07275      0.32142      6.60556         0.566723     -1.631101      0.336019
38   2      5.07953      1.31427      8.32609        -0.467393     -0.415603     -0.805355
39   2      3.25232      0.14610     10.20533         1.411651     -0.861433      0.490700
40   2      5.25301      1.90302     11.96289        -0.916748      0.172938      0.616103
41   2      3.18710      3.40541     13.21853        -0.088495     -0.353466      0.251185
42   2      4.72621      5.02350      1.53056         0.714273      0.412302      0.382937
43   2      3.53616      3.25142      3.25502        -1.319149     -0.131707     -0.646627
44   2      5.15525      4.65530      4.92129         0.150208      0.325092     -0.137851
45   2      3.31030      2.97279      6.59080         0.290305      0.679270      0.953662
46   2      5.37689      5.04361      8.03378        -0.349184     -1.325092     -1.379965
47   2      3.59141      3.41593      9.75859         0.916272      0.097964     -0.279861
48   2      5.11830      5.07097     11.60409        -0.028147     -0.542789      0.805689
49   2      3.06728      6.65315      0.10196         0.170239     -0.753439      0.318181
50   2      4.64108      8.20015      1.66711        -0.098994     -0.474541      0.740275
51   2      3.14018      6.42001      3.41446         0.625163      0.218668      0.018099
52   2      4.78195      8.50337      4.69846        -0.143901     -0.150981      0.533789
53   2      3.73591      6.55757      6.24053        -0.303130     -0.013036      0.751156
54   2      4.88352      8.66442      8.02405         0.242228     -0.061776     -0.634745
55   2      3.96991      6.47664      9.58007        -1.886691      1.201566      0.973630
56   2      4.96413      8.11247     11.64099        -0.870584     -0.546367      1.438627
57   2      3.16375      9.91267      0.04656        -0.137103      0.140383      0.034420
58   2      4.91129     11.70989      1.86844        -1.552418     -0.210696     -1.351372
59   2      3.04795     10.01774      3.20962        -0.359341      0.512167     -0.361222
60   2      5.11565     11.81609      4.76150        -1.962139      0.461058      0.777197
61   2      3.04957     10.22277      6.33411         2.042605     -0.588942      0.525311
62   2      4.70065     11.67629      8.16074         0.570337      0.372441     -0.057448
63   2      3.42702     10.04220     10.21400        -1.284074     -0.121624      0.449866
64   2      4.98992     11.72239     12.12879        -0.415199     -0.570339     -0.519763
65   2      6.59550     13.26109      0.34533         2.018430     -0.338093     -1.422378
66   2      8.88035      1.72419      1.42906        -1.959354      0.917057     -0.377139
67   2      6.83549     13.10733      3.14068         0.597748      1.700639      0.177652
68   2      8.70188      1.31481      4.85470        -0.344101      0.360031      0.282819
69   2      6.82144     13.22109      6.41114        -0.293552      0.124552      0.333385
70   2      8.21814      1.29965      8.50275         0.006623      0.110963     -0.133124
71   2      6.46721      0.09880     10.42063         0.613291     -1.094079     -0.361906
72   2      8.59355      1.55623     11.71749        -0.841932      1.110933      0.035881
73   2      6.74373      3.69633      0.20048         0.376080     -0.761988     -0.308738
74   2      8.04410      5.23876      1.99777         2.269697     -1.679305      0.403310
75   2      7.02985      2.98289      3.38773        -0.220186     -0.217836     -0.451401
76   2      7.96330      4.92010      5.04704         1.079150      0.678146      0.008757
77   2      6.72173      2.95094      6.49787         0.228261     -0.565174      0.654425
78   2      7.97282      5.18582      7.99978         1.565210     -0.262404      0.178276
79   2      6.43971      3.04220      9.78982         1.147623      1.128181      0.378526
80   2      8.34280      4.82603     11.22439        -1.072879      0.503961      0.798591
81   2      6.92397      6.65488      0.15384        -1.338764      0.676096     -1.044375
82   2      8.53217      8.48505      1.98582         0.458265     -0.623649     -0.421525
83   2      6.67757      6.92279      3.31089        -1.373311      0.765274      1.130653
84   2      8.67737      8.61489      4.79961        -0.460881      0.329381     -0.858458
85   2      6.75818      7.21690      6.27321        -0.514641     -0.406557     -0.152600
86   2      7.73346      8.52230      8.48528         1.003093      1.013936     -0.812651
87   2      6.71331      6.72377     10.07701         0.259352     -0.426292      0.264901
88   2      8.43946      8.45279     11.70909        -1.621912      0.470579     -0.919501
89   2      6.48323      9.53858      0.30795         0.316308      0.790399     -0.792578
90   2      8.38323     11.26199      1.58641        -0.382284      0.329633     -1.046565
91   2      6.38558     10.02418      3.25380         1.031826     -1.368887     -0.422681
92   2      8.46903     11.42379      4.36008        -0.364872     -0.381468      2.658130
93   2      6.64567     10.34635      6.45712         0.243908     -0.626240      0.006281
94   2      8.14120     11.42969      8.55641        -1.221974      0.033507      0.998465
95   2      6.06443      9.95758     10.13804         1.961629      1.453090      0.030720
96   2      8.19588     11.42859     12.01619        -0.748951      0.057648     -0.352726
97   2     10.27886     13.26929     13.12969        -1.107444      0.030531      0.898833
98   2     11.49789      2.16723      1.54535         1.140423     -0.722340     -0.361219
99   2      9.94030     13.05499      2.91858         1.789966      0.597214     -0.261805
100   2     11.44889      1.52867      4.86169        -0.073297      0.363787      1.034374
101   2      9.64302     12.77579      6.79227         0.459071      1.172155     -0.396078
102   2     11.14969      1.19256      8.69268         1.057885      0.416444     -0.894525
103   2      9.82801     12.86729     10.26764        -0.538451     -0.282852     -0.041377
104   2     11.68729      1.93413     11.49289        -0.383698     -0.223352     -0.827673
105   2     10.27565      3.79689     12.89109        -0.737023     -0.410185      0.211695
106   2     11.52879      5.04571      1.66673         1.041594      0.452639     -0.588231
107   2     10.04871      3.53505      3.43138        -1.492080     -0.126246     -0.022138
108   2     11.66199      4.63131      5.21919        -0.470068      0.454411      0.953017
109   2      9.95257      3.05406      6.82235        -0.355438      0.112168     -0.141624
110   2     11.38799      5.36700      8.19113        -0.743943     -0.177956     -0.324764
111   2      9.82193      3.42003      9.64625         0.300803     -0.495988     -0.418763
112   2     11.39829      5.48742     11.04119         0.805766      0.012221      0.432441
113   2      9.67852      6.59204     13.11612         1.128210     -0.457617      0.733618
114   2     11.62509      8.12514      1.60729         0.317072     -0.217970     -0.321986
115   2     10.31640      6.64686      3.42961        -1.263295      0.015547      1.065877
116   2     11.83309      8.53938      5.40866        -0.844389     -0.182198     -0.234126
117   2      9.69503      6.86086      6.48754         0.580174     -0.497840      0.562077
118   2     11.77719      8.38966      8.45881        -0.922858     -0.295476     -1.031874
119   2      9.71794      7.10164      9.73516        -0.330916     -0.230661     -0.405983
120   2     11.95719      8.50219     11.78969        -1.052055     -1.764790     -1.407765
121   2     10.10842      9.80146     13.22870        -0.150483      0.162981      1.280795
122   2     12.02399     11.51219      1.35207        -2.076420     -0.031240      0.767286
123   2     10.54913     10.25178      3.17748         0.521934     -1.253235      0.366488
124   2     11.69579     11.56999      5.41746         0.216638      0.275282     -1.041964
125   2      9.77017     10.02642      6.83018         0.068018     -0.994872      0.186030
126   2     11.80899     11.38509      8.16837        -1.278612      0.194855      1.771329
127   2     10.14438     10.05957     10.03447        -0.661942     -0.751252     -0.302718
128   2     11.63379     11.46259     11.77669         1.305875     -0.666599     -0.691964
