ITEM: TIMESTEP
0
ITEM: NUMBER OF ATOMS
128
ITEM: BOX BOUNDS pp pp pp
0.0 13.2781843431999995 
0.0 13.2781843431999995
0.0 13.2781843431999995
ITEM: ATOMS id type x y z fx fy fz
1   2      0.51329      0.26326      0.00640        -1.036344     -0.423044     -0.150306
2   2      1.74565      1.48114      2.02407        -0.656694     -1.153679      1.658377
3   2     12.97249     12.84089      3.35093         1.152204     -0.115207     -0.293454
4   2      1.48477      1.18842      5.00660        -0.048442      0.902739     -0.359955
5   2     12.93809     13.24802      6.71030         0.665446      1.360202     -1.098423
6   2      1.63526      1.73841      8.17647         0.860338      0.097610     -0.599950
7   2     12.82959      0.49811      9.50102         0.195106     -1.093910      0.034187
8   2      1.91257      1.68744     11.35369         0.153170     -0.431139     -0.314103
9   2      0.57124      3.10762      0.06540        -2.390475     -1.292002      0.685852
10   2      1.77843      5.03815      1.38211         0.970014      0.041354      0.757849
11   2      0.20851      3.33365      3.54499         0.095407     -0.071151      0.035541
12   2      1.58092      5.36909      5.08005        -0.072175     -1.331385     -0.909728
13   2     13.08369      3.32951      6.84959        -0.760974     -0.681299     -1.311850
14   2      1.50383      4.78924      8.21752         1.379332     -0.359039      0.680844
15   2     13.15789      3.29355      9.72941        -0.203990      0.341407      0.645279
16   2      1.73926      4.70073     11.74839        -0.027963     -0.318348     -0.531145
17   2      0.04660      6.58775      0.01478        -0.397686      0.339882     -0.795664
18   2      1.69746      8.54473      1.20454        -0.133560      0.796425     -0.061815
19   2      0.34386      6.61468      2.94658        -0.866471      1.060647      0.682809
20   2      1.48810      8.22603      5.20593         0.516793      0.498911     -0.405516
21   2     13.19927      6.48902      6.96041        -0.405388      0.491685     -0.346570
22   2      1.74841      8.22278      8.70921        -0.375900      0.164100     -0.392317
23   2      0.29847      6.42855     10.22019        -0.810383      0.058396      0.402262
24   2      1.45726      8.96958     11.41259         0.921030     -1.157855      1.707504
25   2     13.20631     10.62263     13.25038         1.294742     -0.495886      0.682419
26   2      1.90067     11.84089      1.69995        -0.734848     -0.987424     -0.761959
27   2     13.23769      9.95600      3.23403         0.607594     -0.029778     -0.045382
28   2      1.37677     11.59289      5.26879        -0.034670     -0.757699     -0.036535
29   2     12.96489      9.60946      6.80317         1.879989      0.982053      0.742587
30   2      1.72210     12.16269      8.21341        -1.568048     -0.521654      0.163677
31   2     13.24509     10.31043      9.82800        -0.583804      0.316896     -1.023625
32   2      1.40841     12.12659     11.27079         0.797256     -0.146689     -0.582275
33   2      3.67349     13.13009     13.14589        -0.362688      0.093454      0.192960
34   2      5.19070      1.20960      2.02043        -0.145585     -0.105966     -0.607774
35   2      3.52648     12.89819      3.44802         0.052856      0.251073      0.756701
36   2      4.93786      1.72297      4.60945        -0.182812      0.343016      1.287239
37   2      3.41881     13.16749      6.41907         0.345040      1.267871      0.447478
38   2      5.51929      1.70535      7.55502        -1.509959      0.316409      0.689882
39   2      3.76987      0.18152      9.40922        -0.056439      1.209985      0.503543
40   2      5.06876      1.80505     11.79239        -1.492649     -0.862554     -0.979769
41   2      3.33794      2.86384      0.55460         1.303467      0.474145     -1.028971
42   2      5.06495      4.97637      1.81816        -0.657446      0.722249      0.351421
43   2      3.01523      3.50806      3.34807         0.791830      0.282228      1.018214
44   2      5.00857      5.65057      4.56487        -0.445837     -0.736874      0.411366
45   2      3.55818      3.66278      6.51382        -0.052753     -0.261015     -0.274763
46   2      5.04333      5.05362      8.63096         0.634938      0.790976     -3.593496
47   2      3.53972      3.11395      9.77145        -0.225882     -0.251275     -0.294248
48   2      4.69713      4.73289     12.13509         0.631816     -0.851448     -0.631114
49   2      3.19617      6.72106     12.94799        -0.293219      1.462529      0.628856
50   2      4.87767      8.56690      1.57819        -0.426256      0.259222     -0.195305
51   2      3.24663      6.99996      2.92675        -0.725454     -0.603814      0.515429
52   2      4.52005      8.39211      5.09453         0.310799      0.045631      0.503724
53   2      3.04433      6.57294      6.87898         1.394109      0.461085      0.089640
54   2      4.66740      7.99774      8.59552         0.507021      0.419200     -0.921088
55   2      3.22056      6.01442     10.07310        -0.825277      1.870352      0.481709
56   2      4.32388      8.61830     11.20099         0.849776     -1.453232      0.128280
57   2      3.57954     10.32594     12.98119        -0.985260      0.805592      0.789727
58   2      5.27300     11.27809      1.72892        -1.530858      1.576623     -0.325419
59   2      2.99099     10.08466      3.56535         0.134622     -0.313734     -0.297694
60   2      5.16423     11.61669      5.27709         0.688213     -1.431614     -0.348893
61   2      3.18495     10.01963      7.03981         0.200275     -0.191610     -1.138108
62   2      5.42437     11.57329      8.29831        -0.792101      0.048544     -0.060934
63   2      3.16986     10.49473      9.70382         0.241546      0.225045      0.623219
64   2      5.26715     11.89219     11.09529        -0.294664     -1.023327      1.328731
65   2      6.69523     13.15499      0.01242        -1.147275     -0.154835     -0.622824
66   2      8.15046      1.46182      1.67678         0.743331      0.706781      1.027146
67   2      7.03943     13.04649      3.61622        -1.465025     -0.576177     -0.053657
68   2      8.13504      1.73164      5.07694         1.010181      0.314505      0.154817
69   2      7.08740     13.05479      6.69052         0.511341     -0.124509     -0.363269
70   2      8.24333      2.03149      8.24615        -0.961458      0.047883     -0.279431
71   2      6.77837      0.22118      9.69717         0.824878      0.568080     -0.085879
72   2      7.75558      1.87224     11.80149         1.948604      0.188091     -0.801170
73   2      6.33326      3.10577      0.46341         0.937372      0.922154      0.485259
74   2      8.27895      5.40725      1.45436         0.059913     -1.504427     -0.257113
75   2      6.88582      3.51079      3.43970        -0.013154      0.206056     -1.229306
76   2      8.57647      5.30347      4.79035        -1.420914      0.389641     -1.862172
77   2      6.42959      3.75375      6.11692         0.256023      1.037274      0.570653
78   2      8.06903      4.89998      8.56315         0.537128      0.779942     -0.676681
79   2      6.40571      3.42632      9.97041         0.235489     -2.008219      0.813864
80   2      7.71382      4.84505     11.84969         0.847369     -0.030585      1.166533
81   2      6.13429      6.90709     13.18229         0.410489     -0.392024     -0.167309
82   2      8.40601      8.34469      1.51629         0.609125      0.370747     -0.502237
83   2      6.83318      6.99903      2.98188        -1.745014     -0.923009      1.017641
84   2      8.05482      8.26714      5.00123         1.959753      0.606023      0.189778
85   2      6.58002      6.80896      6.55425        -0.828721     -1.004525      1.055129
86   2      8.33922      7.72226      8.59658         1.111553      0.424493     -0.540347
87   2      6.48403      6.70527     10.28649        -0.430100     -0.006373      0.426524
88   2      8.40542      8.09915     11.90049         1.125637     -0.846887     -0.043687
89   2      6.53967      9.76232     12.82019        -0.960771      0.614829      0.987279
90   2      7.93287     11.28229      1.39273         0.964770     -0.106226      1.257262
91   2      6.46778      9.79786      3.49792         0.377505      0.044790      0.708722
92   2      8.40378     11.10689      5.19537         0.105157     -0.324664      0.053763
93   2      6.69466      9.61021      7.22414         0.475819     -0.894917     -0.769881
94   2      8.76258     11.41189      8.06179         0.069873     -0.017369      0.994448
95   2      6.90264      9.55315     10.20168        -0.271663      0.857609     -1.748232
96   2      8.36770     11.61479     11.58079        -0.065932      0.111100     -0.800326
97   2      9.66646      0.27748     13.05979         0.901935     -0.671214     -0.285835
98   2     11.75569      1.40389      1.40198         0.019730      0.141385      0.831447
99   2      9.63869     12.73109      3.22292         0.257171      0.882214      0.814735
100   2     11.69239      1.48589      4.56212         0.171700      0.780259      0.629635
101   2     10.18383      0.21275      6.34049        -1.258484     -1.047003     -0.048906
102   2     10.87253      2.04391      8.14877         2.110114      0.028790      0.177976
103   2      9.68471      0.23808      9.85680         0.227120     -0.613051      0.726592
104   2     11.82729      1.75669     11.56799        -0.335944     -0.553591      1.310175
105   2     10.05846      3.08393      0.07958        -1.007353      0.627154      0.488426
106   2     11.82539      4.75370      1.84885         0.116585     -0.571877     -0.634705
107   2     10.06268      3.04751      3.19908        -0.924985      0.541139     -0.392909
108   2     11.69449      4.86515      4.98735         0.033977     -0.013349     -0.502104
109   2      9.60396      3.73776      6.53469         0.459174     -0.647862      0.055860
110   2     11.25689      5.13693      8.46119         0.349087     -0.255802      0.119929
111   2      9.93540      3.39100     10.32779        -1.171599     -0.355520     -0.009370
112   2     11.75829      4.61504     11.87699         1.336068      0.703340      0.181380
113   2     10.35600      6.46339      0.13010        -0.050568      0.274594     -0.539033
114   2     11.74189      8.52444      1.38445         0.736184     -0.279021      0.184835
115   2     10.37979      6.69822      3.11226        -0.452597      0.344627      0.185847
116   2     11.94299      8.03752      4.98570        -0.332967     -0.396040     -1.595641
117   2     10.10829      6.63938      6.44078        -0.211234      0.853338      1.094045
118   2     11.85779      8.04577      8.76682        -0.827720     -0.290201      0.635017
119   2      9.84118      6.18829     10.56681         0.137295      0.743130     -0.185610
120   2     11.87789      8.65397     11.82839         0.385755     -1.263547      0.021980
121   2      9.84476     10.04495      0.05208         1.014191      0.144251     -1.166024
122   2     11.34569     11.76259      1.55985         0.356626     -0.181557     -1.143737
123   2     10.13851      9.74552      3.21535        -0.830213     -0.431880      0.186854
124   2     11.39969     11.18819      5.06403         0.428335      1.038241      0.098694
125   2     10.23717      9.47263      6.82561        -1.265967     -0.838819      0.361520
126   2     11.63509     11.61439      8.16764        -1.734035     -0.464155      0.943223
127   2     10.16391      9.78660     10.19612        -1.095404      0.519675     -1.028326
128   2     11.56849     11.85259     11.58149        -0.815039      1.053219     -0.530424
