ITEM: TIMESTEP
0
ITEM: NUMBER OF ATOMS
128
ITEM: BOX BOUNDS pp pp pp
0.0 13.2781843431999995 
0.0 13.2781843431999995
0.0 13.2781843431999995
ITEM: ATOMS id type x y z fx fy fz
1   2     13.09619      0.15750     13.27502        -1.072741     -0.921030      0.390881
2   2      1.55208      1.75738      1.43259        -0.145501      0.593090     -0.050828
3   2     12.83609      0.29499      2.93630        -0.100232      0.368008      0.423270
4   2      1.46376      1.40832      4.51832         0.178106      1.374362      0.850197
5   2      0.14309      0.06410      6.77411        -0.445195     -0.045302     -0.471510
6   2      1.86497      1.21371      8.58274        -0.676849      0.367251     -0.551403
7   2     13.02971     13.01649      9.87650        -0.382116      0.714154      0.602024
8   2      1.56156      1.20439     11.68259         1.124516      0.538662     -1.035140
9   2      0.05780      3.36390     12.92059         0.631666     -1.108958      1.016419
10   2      1.44859      4.95302      1.38799         1.409215      0.064772      0.149016
11   2      0.11900      3.63164      3.24663        -1.152432     -1.852005     -0.535227
12   2      1.59001      4.74157      5.12641         1.071003      0.659148      0.281022
13   2      0.29005      3.17396      7.14690         0.613893     -1.235563     -0.358612
14   2      1.84055      4.93479      8.66906        -0.062778      0.394826     -0.853688
15   2      0.16449      3.31798     10.22046         0.039195     -1.260383     -1.292608
16   2      1.70206      5.30475     11.31429         0.654718      0.297150      1.294014
17   2      0.10999      6.70110      0.02360        -0.502640      0.689883     -0.480494
18   2      2.01133      8.10229      1.49852         0.004072      0.008410      0.539983
19   2      0.04857      6.43593      3.47192         0.804551      0.143271     -0.203690
20   2      1.98443      8.31151      4.92023        -0.011951     -0.122760     -0.204128
21   2      0.35922      6.79685      6.72052         0.001481     -0.483103      0.582001
22   2      1.64124      8.63242      8.27022         1.451270      0.621589     -0.358833
23   2      0.19816      7.15979      9.84876        -1.239985     -0.844556      0.264698
24   2      1.46998      8.60344     11.87149         0.486964     -0.792720     -1.081430
25   2     13.09603      9.70016      0.37093        -0.297436      0.808738      0.351195
26   2      1.26701     11.66419      1.61976         0.004896      0.231055     -0.748568
27   2     13.15689      9.64289      3.32314         1.361623      1.289180     -0.313047
28   2      1.19203     11.98089      4.37645         0.433500     -0.940174      0.964301
29   2      0.32170     10.17917      6.38145        -0.730719     -0.062944     -0.597149
30   2      1.50704     11.57189      8.41126         1.329238      0.285592     -0.379263
31   2     13.03379     10.19532      9.85344        -0.213552     -1.378052      1.085726
32   2      1.45989     11.40159     11.71779        -0.714798      1.145385      0.565313
33   2      3.44613     12.97659      0.02148        -1.474973      0.358187      0.881913
34   2      5.15385      1.91675      1.33869        -0.380771      0.274167      0.723253
35   2      3.22750      0.22451      2.79991         0.971838     -0.417603      0.614193
36   2      4.78637      1.79249      4.97069         1.019103     -0.190864     -0.859119
37   2      3.29774      0.03690      6.29752        -0.845230     -0.784995      0.056837
38   2      4.94811      1.22459      8.11953        -0.734888      0.350827      0.382429
39   2      3.40623     12.87029     10.05350         0.365991      0.311811      0.347010
40   2      4.73835      1.51286     11.82999         0.490086      0.349567     -0.522175
41   2      3.10942      3.40267     13.08349         0.412982      0.319479     -0.154555
42   2      5.24848      4.97691      1.89905         0.189575      0.050701     -2.143382
43   2      3.35360      3.42718      3.05797        -0.929402     -1.513913     -0.398010
44   2      4.68466      4.74100      5.02067         0.729007      0.544799      0.926202
45   2      3.08079      3.07132      6.59300        -0.006566     -0.369851      1.151295
46   2      4.76953      4.92410      8.40512         0.717843     -0.870564      0.480678
47   2      3.36101      2.94058      9.91016         0.140584      0.123627      0.311272
48   2      4.83511      4.87326     11.20329         0.051964      0.489245      0.390772
49   2      3.70002      6.57176     13.03179        -0.585312     -0.562657      0.922658
50   2      5.02728      8.43307      1.84944        -0.715529     -0.078327     -0.444103
51   2      3.20353      6.17367      3.21330        -0.458798      1.717207      0.197918
52   2      4.76969      8.50452      4.64915        -0.577606     -0.241375      0.537625
53   2      3.31141      6.33147      6.77050        -1.051333      1.073332     -1.011680
54   2      4.73170      8.41090      7.78319        -0.485913      0.278433      0.795662
55   2      3.48491      7.20540     10.06372        -0.366936     -0.214074     -0.295246
56   2      5.25348      8.37386     11.86229         0.344575      0.627510     -0.200711
57   2      3.37610     10.00941     13.19332        -0.088828     -0.408734      1.688680
58   2      5.26873     11.80129      1.81515         0.127630     -0.887109     -0.966782
59   2      3.09200     10.28978      3.00656         0.215526     -0.798111      0.265340
60   2      4.94885     11.68709      4.47313        -0.001167     -0.043502      1.057331
61   2      3.20914     10.50037      6.49188        -1.049101     -0.973349     -1.572254
62   2      4.97670     11.34309      8.12057         0.678514      0.796772      1.116022
63   2      3.34159     10.10071     10.24564         0.387130     -0.995897     -0.989678
64   2      5.08732     11.50159     11.90819         1.984298      0.101004     -0.589957
65   2      6.82725      0.09606      0.12968        -0.087429     -0.184526     -0.535925
66   2      8.24205      1.92175      1.64823        -0.029591      0.272023     -0.237860
67   2      6.66024      0.35403      3.31963         0.189991      0.398882      0.458365
68   2      8.21758      1.93571      5.20827        -0.258222     -0.806536     -0.951366
69   2      6.50464     12.95236      6.45129         0.189237      0.594569     -0.520132
70   2      8.28531      1.67498      8.45821         0.028930     -1.073412      0.092539
71   2      6.33052      0.04990     10.08222         0.777331     -0.431447      0.301416
72   2      8.34835      1.61916     11.52859        -0.138395     -0.605076     -0.220736
73   2      6.62465      3.43409     12.79229        -0.125479      0.100979      1.333455
74   2      8.41680      4.68284      1.46592        -0.468880      0.762932      0.437309
75   2      6.67528      3.58373      3.65961         0.728904     -0.721684     -0.494255
76   2      8.35046      4.81136      5.55068        -1.064827      0.943817     -1.720399
77   2      6.53837      3.04775      6.98958        -1.128756      0.984748     -0.665136
78   2      8.03400      4.88666      8.41751         0.498101      0.841516      0.436704
79   2      6.66149      3.11960     10.04714        -1.210015      0.116765     -0.478243
80   2      7.93092      5.37438     11.41649        -0.006474      0.156722     -0.458017
81   2      6.87519      6.92446      0.34690        -0.471767     -1.044744     -0.231530
82   2      8.72685      7.83398      2.09225         0.306694      0.413003     -0.187337
83   2      6.58796      6.64766      3.49062         0.341420     -0.113420      0.638268
84   2      8.42765      7.69982      5.34862         0.283032      0.594596     -0.417049
85   2      6.41655      6.46138      6.74119        -0.475409      0.096919     -0.409508
86   2      8.65243      7.99940      8.22489         0.126283      0.391850     -0.059244
87   2      6.50071      6.96589      9.59807        -0.486159      0.157278      0.302100
88   2      8.05875      8.46328     11.54849         1.024842     -0.427524      0.025446
89   2      7.27979      9.73703      0.67994        -0.901478     -0.306936     -1.047135
90   2      8.38344     11.75199      1.83561         0.571145      0.875742      0.652050
91   2      6.99982      9.68818      3.52105         0.403847      0.264552      0.119644
92   2      8.37433     11.80509      4.77646         0.230312     -0.309593     -0.240053
93   2      6.58029      9.74475      6.41405         1.172969      0.585535     -0.381525
94   2      7.97571     11.69789      8.39146         0.609830      0.043119     -0.499622
95   2      6.51269     10.03330      9.95301        -0.137186     -0.497562     -0.170232
96   2      8.12880     11.62009     11.72139        -0.095007      0.312284      0.520149
97   2      9.93654      0.23730     13.18470        -0.227718     -0.691218      0.630717
98   2     11.56399      2.12059      1.39802        -0.289854      0.171431      0.210377
99   2     10.01578      0.41891      3.18757        -0.449320      0.280784      0.912141
100   2     11.67759      1.77960      5.31196         0.439129      0.250725     -0.529896
101   2      9.75201      0.21600      6.53433         0.192293     -0.854382      0.985495
102   2     11.56989      1.67714      8.40188         0.325783      0.054007      0.058116
103   2      9.92722     13.24089      9.76396        -0.017539     -0.947141      0.532530
104   2     11.45929      1.61867     11.40789         0.813980      0.020474     -0.369217
105   2      9.97704      3.48409     12.80579        -0.474543     -0.090545      0.486106
106   2     11.49869      4.97847      1.34634         0.385444     -0.076689      0.951086
107   2      9.96555      3.29308      3.47970         0.388503      0.452431      0.084167
108   2     12.14889      4.74651      5.39195        -1.034897     -0.421658     -0.430876
109   2      9.88114      3.31386      6.96028         1.544595     -0.585783      0.561098
110   2     11.92109      4.82817      8.40290         0.187793      0.357178      1.568134
111   2      9.84452      3.54899     10.07573         0.373664      0.317949     -0.696114
112   2     11.96599      5.11687     11.62439        -0.974139      1.079317     -1.411737
113   2      9.90297      6.42201     12.94399        -0.326077      1.144970      0.528148
114   2     11.71629      7.87773      1.90881        -1.148720     -0.547325     -0.708106
115   2     10.12197      6.18489      3.59696         0.527651     -0.726089      0.751194
116   2     11.95089      8.16356      5.10627        -1.484383     -0.157429      0.814842
117   2     10.40371      6.14131      6.78848        -0.937177      2.090236     -0.015466
118   2     11.61039      8.67697      8.02293        -0.152224     -1.134362     -0.002381
119   2     10.27393      6.72079     10.09071        -0.435363     -0.405241     -0.909863
120   2     11.58619      8.39191     11.69989         0.413036      0.179830     -0.425594
121   2     10.16712      9.75430      0.26594        -1.052650     -0.213545      0.068816
122   2     11.24049     11.79739      1.71429         0.808765     -0.391776     -0.770210
123   2     10.31665      9.81457      3.31471        -0.845663      0.150483      1.088569
124   2     11.49189     11.87009      5.10918         0.245593     -0.231782     -0.296022
125   2      9.69562      9.97072      6.44767        -0.220993      0.045867     -0.295703
126   2     11.39389     11.42919      8.09574        -0.321391      1.091531     -0.660921
127   2      9.71833     10.24026     10.09512         0.580126     -0.806885     -0.535961
128   2     11.57679     11.50829     11.88289        -0.156771      0.246548     -0.109489
