ITEM: TIMESTEP
0
ITEM: NUMBER OF ATOMS
128
ITEM: BOX BOUNDS pp pp pp
0.0 13.2781843431999995 
0.0 13.2781843431999995
0.0 13.2781843431999995
ITEM: ATOMS id type x y z fx fy fz
1   2      0.17815      0.15733      0.04699        -1.582513      2.006461      0.772593
2   2      1.73536      2.04831      1.54636        -0.517585     -0.107710      0.238136
3   2      0.60564     13.15379      2.94850        -0.960828      0.027790      1.040690
4   2      1.58594      1.59220      4.90102         0.554892      0.077568      0.116837
5   2      0.06695     12.91379      5.97554        -0.426690      0.110907      0.717797
6   2      1.17138      1.64985      8.08242        -1.129595     -0.825695     -1.684993
7   2     13.13079      0.00259     10.12996        -0.434546      1.141243     -0.560715
8   2      1.65628      1.91883     11.72529        -0.217149      0.620296      0.410182
9   2     12.42889      3.19165      0.24616         0.598111     -0.662846     -0.088203
10   2      1.31250      4.70029      1.54901         0.001103      0.596971      0.195418
11   2     13.06649      3.13144      3.59239        -0.242009      0.659225     -1.467420
12   2      1.47158      4.50788      5.39126        -2.211163     -0.269774     -1.618224
13   2     12.54839      3.09195      6.28531         1.179249     -0.327798     -0.804822
14   2      1.18092      4.25484      8.34582        -0.236977      1.259653      0.354030
15   2     12.85479      2.83006     10.06033         0.285929      0.761337      0.603342
16   2      1.36667      4.76907     11.90259        -0.576752     -2.640550     -1.997676
17   2      0.11780      6.68274     13.02389        -2.405519      0.785175      1.600712
18   2      2.05536      8.00632      1.46243        -1.325419      0.088797      0.303321
19   2      0.32521      6.58896      3.45335         0.581913      0.040204     -0.420371
20   2      1.88062      8.21490      4.98708        -0.149774      0.784234      0.929897
21   2      0.16154      6.48191      7.11986        -0.943400      1.083864     -0.799732
22   2      1.77828      8.42421      8.47016        -0.110644     -0.262085      0.089678
23   2     13.11559      6.68714      9.89387         0.477799     -0.273837      0.091724
24   2      1.97001      7.83913     11.62519        -0.329192      3.003861     -1.984356
25   2      0.40594     10.08738     13.15149         0.030912     -4.054953     -1.082081
26   2      1.80398     11.63709      1.16594         2.799959      0.885057      1.812756
27   2      0.82224      9.93143      3.02029        -1.086816     -0.478305      0.370337
28   2      2.14543     11.52259      4.75445        -0.295707      0.139853      0.373967
29   2      0.24798     10.08054      6.70883         0.099815     -0.390631     -0.419015
30   2      1.54795     11.94149      8.28248         0.432464     -0.244309     -0.625103
31   2      0.48451     10.30803     10.24320         0.257633     -1.077375     -0.444754
32   2      1.75823     12.26209     11.68529         1.609196     -1.175702     -0.458565
33   2      3.49974      0.38762      0.34388         0.653578     -0.031347     -0.805031
34   2      5.25178      2.09130      1.87805        -0.052829     -0.378022      0.782816
35   2      3.40405     13.26119      3.05714         0.663211      0.305324      0.165235
36   2      4.98236      1.75813      4.72726         0.262861      0.274916     -0.292656
37   2      3.46909      0.16716      6.38793        -1.051625      0.142629      0.479595
38   2      5.08418      1.62032      8.25055        -0.267999      0.885955      0.654591
39   2      2.82959      0.56918      9.67077         1.721934     -0.788155      0.409911
40   2      5.18641      1.69042     11.38919         0.134163      0.407059     -0.520071
41   2      3.65656      3.30050     13.13089        -0.561777      0.206051     -0.159171
42   2      5.00583      4.83456      1.78623        -0.020182      0.871085      0.271664
43   2      3.10546      3.55357      3.50830         0.410990     -0.871449     -1.025046
44   2      4.76655      4.91161      5.26440         1.555665     -0.690025      0.233588
45   2      3.21960      3.04026      6.75081         0.871663     -0.419356      0.215239
46   2      4.97050      5.00782      8.04818         0.570100     -0.023212      0.939789
47   2      3.36550      3.23116      9.71465         0.213135      0.631312      0.689203
48   2      4.92091      5.17558     11.25749         0.392177     -0.798588     -0.449703
49   2      3.13390      6.18385     13.11313         2.624139     -0.911104      2.004794
50   2      4.71537      8.15295      1.38511         1.166928     -0.984885     -0.113412
51   2      3.30996      6.31843      3.65589        -0.705488      0.924330     -1.645403
52   2      4.94176      7.93521      5.39286        -2.315507      0.362990      0.518432
53   2      2.80860      6.16214      6.69016         1.542785      2.351004      1.723096
54   2      4.76343      8.09873      8.66165        -0.050615     -0.566545     -0.252447
55   2      2.89218      6.06194      9.74963        -0.372336      0.368218     -0.688008
56   2      4.99212      8.11051     11.50549        -1.094504      0.207139     -1.317699
57   2      3.52087     10.12899     12.98249        -0.335366     -0.548550     -0.816149
58   2      5.16741     11.33289      1.44046        -0.281487      0.693102      0.761608
59   2      3.57605      9.70420      3.17182        -0.719052      0.657464      0.616636
60   2      5.01402     11.69299      5.03884        -0.058531     -0.607130      0.354653
61   2      3.26328     10.13280      6.78935         0.220415     -0.592012      0.322290
62   2      4.96679     11.95689      8.11275        -2.111633     -1.646073     -1.230319
63   2      3.43353     10.09215     10.07425        -0.373100      0.126392     -0.167351
64   2      4.45362     12.36109     11.28149         0.694739     -0.913128      0.584636
65   2      6.41961      0.21533      0.17034         0.117797      0.377488      0.483448
66   2      8.20876      2.00456      1.94846        -0.843483     -1.447201      0.848524
67   2      6.40069     13.04299      3.21712         0.966450      0.857550     -0.217822
68   2      8.41559      1.42290      4.97504         1.000796      0.339101     -1.826084
69   2      6.76440      0.41438      6.60526        -0.567271     -2.047635      0.063308
70   2      8.22626      1.86573      8.37096         0.244209     -0.298483      0.188906
71   2      6.53561     13.03809      9.63600         3.048132      1.617002      2.201691
72   2      8.30074      1.49629     11.49909        -0.506016     -0.288993     -0.118878
73   2      6.46990      3.50121     13.08929         0.923647     -0.001401     -0.055555
74   2      8.20089      5.18247      1.71624        -0.340758      0.685333      0.122707
75   2      7.12469      3.73585      3.91724        -0.672439     -0.259256     -1.024453
76   2      8.63185      5.66497      5.00407         0.481514     -0.253286      0.111138
77   2      6.63719      3.30760      6.52479         0.435461      0.201323      0.756165
78   2      8.85206      5.37849      7.97075        -0.644266     -1.188617      0.822932
79   2      7.05421      3.63212     10.17051        -0.659400     -0.573198     -1.120566
80   2      8.29714      5.25231     11.79239         1.555692      0.485025      0.322088
81   2      6.36606      6.58301     13.07949         0.891026     -0.230709      1.782321
82   2      7.90831      8.46404      1.97658         0.660752     -1.597002     -0.863745
83   2      6.30950      6.66836      3.49911         0.672325     -0.773943     -0.815358
84   2      8.12748      8.38035      5.30659         1.043241      0.835121     -1.141030
85   2      6.81750      6.79625      6.79527        -0.624216     -1.408693      2.037788
86   2      8.70450      8.83274      8.57715        -0.461245     -0.991825      0.516315
87   2      7.04691      6.50298      9.70557        -0.685268      0.441187     -0.400876
88   2      8.27762      8.36127     11.38229         0.298585      0.015151      0.412325
89   2      6.48967      9.64623     13.12464         1.090154      0.366171     -0.203496
90   2      8.11467     11.22369      1.87755        -2.198374     -0.351584     -1.735013
91   2      6.18338      9.55247      3.66696         0.392147      0.987239     -0.309861
92   2      7.86147     11.19969      5.21917         0.258124      0.983868     -0.047631
93   2      6.16895      9.76763      7.00135         0.648142      0.141674      0.298981
94   2      8.34155     11.45549      8.09147        -0.456708      0.526754     -0.337854
95   2      6.41096     10.26743     10.26343         0.024470     -0.167448     -0.459267
96   2      7.94475     11.89539     12.00409        -0.245964     -0.463157     -0.337509
97   2      9.66991     13.19667      0.31926         0.189470      0.293216     -0.180254
98   2     11.64089      1.05567      1.89314        -0.170140      0.846511     -0.962169
99   2      9.81414     12.64399      3.03960         0.659552      1.401492      1.626274
100   2     11.38869      1.15441      4.52220         0.053622      0.566005      0.566076
101   2     10.14849     12.85029      6.21834        -0.657905     -0.819493      0.616317
102   2     11.52979      1.33035      7.99609        -0.433512     -0.649441      0.231243
103   2      9.91787     13.02289      9.70297        -0.475260      3.052393     -0.343462
104   2     11.05689      1.51908     11.64729         0.467577     -0.747291      1.044721
105   2      9.47734      3.32627      0.14985         1.291535      0.330399     -1.041021
106   2     11.71889      5.25060      1.88220         1.157208     -1.088093     -1.094633
107   2     10.05229      3.57702      3.30121        -0.044874     -0.421049      0.455955
108   2     11.51369      5.52599      4.82466         0.783375     -1.627147      1.770494
109   2      9.86458      3.21212      6.44926        -0.795616      0.106360     -0.288208
110   2     11.55869      4.71954      8.07526         0.203436      1.394366      0.888441
111   2     10.13803      3.22729      9.75611        -1.280828      0.279397      0.267103
112   2     11.39099      4.88651     11.68349         0.345216     -0.227542     -0.159933
113   2     10.12841      6.66762      0.11534        -0.248674      0.913591     -0.035116
114   2     12.11619      8.44304      1.70634         0.037888     -0.403374     -0.510580
115   2     10.30858      6.98029      3.10576        -2.500645      2.201186     -0.255866
116   2     12.07889      8.37530      5.02429         0.377778      0.219349     -0.258049
117   2     10.37984      7.16701      6.84101         0.692138      0.269548      0.055468
118   2     11.64239      9.19961      8.74673         0.096449     -1.710950      0.250630
119   2     10.36607      6.86428     10.15028        -1.336365     -0.563492     -1.143506
120   2     11.76259      8.59340     11.52269         0.373857      0.758089      1.190641
121   2      9.84012      9.70773      0.22518         0.042460     -0.236037     -0.506801
122   2     11.88859     11.17959      1.54367        -0.735222      1.022067      0.406052
123   2      9.77508      9.84774      3.48584         0.321297     -1.175129      0.137432
124   2     11.86809     11.19109      4.38457         0.770381      0.318820      0.606112
125   2     10.16466      9.88626      6.49629         0.395183      1.044233     -0.529794
126   2     11.83259     11.74179      8.28111         0.026949      0.708376     -0.907746
127   2      9.89571     10.72513     10.60868        -0.110630     -3.288620      0.438174
128   2     12.05339     11.62539     11.93909        -2.396107      0.788387     -0.098330
