ITEM: TIMESTEP
0
ITEM: NUMBER OF ATOMS
128
ITEM: BOX BOUNDS pp pp pp
0.0 13.2781843431999995 
0.0 13.2781843431999995
0.0 13.2781843431999995
ITEM: ATOMS id type x y z fx fy fz
1   2     13.14599      0.26313      0.15627        -0.431072     -0.221831      0.319399
2   2      1.76259      1.83544      1.44386         0.405683      0.231297      0.830632
3   2      0.11937      0.13661      3.35823        -0.345945      0.147735     -0.462670
4   2      1.91389      1.56331      4.79334        -0.317616      1.519977     -0.183142
5   2      0.21989      0.03892      6.46771        -0.119516      0.308000      0.175155
6   2      1.93931      1.55024      8.21685        -0.584365      0.800871     -0.082700
7   2      0.23985      0.23960     10.09928        -0.291289     -0.275789     -1.138424
8   2      1.51959      1.86233     11.84989         0.971315     -0.064696     -0.020517
9   2     12.94101      3.31951      0.14213        -0.463584      0.110273      0.079855
10   2      1.44539      5.03461      1.52977         1.339058     -0.960014      0.583460
11   2     13.25813      3.28933      3.28322         0.136048     -0.583117     -0.123818
12   2      1.73064      4.98226      4.87683         0.716452      0.277601      0.207002
13   2      0.42956      3.25976      6.51543        -0.784951     -0.521206      0.440489
14   2      1.91893      4.85607      8.24647        -0.557904      0.870929     -0.359244
15   2      0.01531      3.07963      9.88264        -0.353342      0.530722     -0.666490
16   2      1.42586      4.78417     11.60269         0.387151      0.156533      0.293162
17   2     12.96645      6.41261      0.15145        -0.772416     -0.497742     -1.182742
18   2      1.39408      7.87553      1.72903        -0.402086      0.501849     -0.811427
19   2     12.93819      6.10577      3.54018        -0.483559      0.720428     -0.564239
20   2      1.45562      7.90072      4.49171         0.191663      0.536387      1.451072
21   2     13.16779      6.39380      6.57841         0.268650      0.265714      0.277215
22   2      1.48707      8.04410      8.28518        -0.197926     -0.245863      0.158078
23   2     13.15933      6.31110     10.02410        -0.295695      0.133011     -0.622472
24   2      1.32514      8.01310     11.79059         0.448109      0.303452      0.199223
25   2     13.09529     10.11586      0.06145         0.568238     -0.079435      0.354765
26   2      1.50931     11.69189      1.54967         0.463870      0.632842      0.377599
27   2     13.23530      9.93041      3.12570         0.151978     -0.154845      0.549112
28   2      1.78580     11.54039      4.86768        -0.002245     -0.074628     -0.237425
29   2      0.23453      9.88740      6.47839        -0.123825      0.094997      0.257485
30   2      1.81396     11.63219      8.24300        -0.591893      0.396576     -0.022748
31   2      0.20003     10.08241      9.96205         0.049844      0.251330      0.048109
32   2      1.54158     11.81529     11.79379         0.632002     -0.142838      0.231616
33   2      3.55193      0.10509     13.27471        -0.251272     -0.190498      0.106002
34   2      5.00876      1.80232      1.76281         0.135791      0.240686     -0.685483
35   2      3.35592      0.00014      3.15784         0.055240     -0.512836     -0.518052
36   2      5.05358      1.86588      4.61807        -0.105373     -0.478547      0.798612
37   2      3.37928      0.10530      6.46664         0.895598     -0.565195      0.395756
38   2      5.05099      1.70029      8.34930        -0.266198     -0.298995     -0.307741
39   2      3.33238      0.14100     10.05353         0.042713     -0.416958      0.492966
40   2      5.10627      1.76480     11.53549        -0.182666      0.576675     -0.138927
41   2      3.42305      3.52138     13.06830         0.531307      0.086087      0.591326
42   2      5.43495      5.19473      1.55034        -0.916780      0.050189     -0.412452
43   2      3.51775      3.73240      3.25421        -0.478494     -0.228360     -0.907511
44   2      5.16659      5.26245      4.85137         0.616244      0.127932      0.430102
45   2      3.64185      3.37458      6.39903        -0.292957      0.263520      0.519768
46   2      5.01884      5.26599      8.39830         0.058739      0.179739     -0.113365
47   2      3.39922      3.37458      9.85224         0.338365     -0.259434      1.007358
48   2      5.27821      5.04932     11.47559        -0.382927      0.393748      0.185771
49   2      3.38473      6.52370     13.17499        -0.574845     -0.938632      0.727365
50   2      5.21692      8.41999      1.61852        -0.265802      0.030340     -0.500633
51   2      3.54364      6.77931      2.98591         0.152501     -0.953169      0.453319
52   2      5.08315      8.24487      4.97204        -0.055081      0.335391     -0.533692
53   2      3.40204      6.72892      6.46969        -0.616187     -0.378792      0.500643
54   2      4.92727      8.28265      8.41947        -0.222975     -0.329269      0.341852
55   2      3.13897      6.74921     10.16153         0.454308     -0.585777     -0.285795
56   2      4.79371      8.32205     11.92169         0.599064      0.385947     -0.781615
57   2      2.87648      9.78371      0.12463         0.412916     -0.020203     -0.155516
58   2      4.92775     11.38089      1.73867         0.139162      0.070097     -0.377063
59   2      3.07845      9.70403      3.08223         0.303676      0.419423      0.317361
60   2      4.69486     11.43619      4.96715        -0.052096     -0.968534     -0.339341
61   2      3.11782      9.61367      6.69966         0.129468      0.105226     -0.781965
62   2      4.55746     11.32509      8.40906         0.811561      0.339503     -0.081063
63   2      3.02297      9.78674     10.17126        -0.427974     -0.586932     -0.220441
64   2      4.67417     11.37399     11.60089        -0.025953      0.702808      0.819594
65   2      6.53249      0.13378     13.18935        -0.405492     -1.003810      0.128748
66   2      8.05287      1.52696      1.62849         0.573470     -0.049173      0.536124
67   2      6.44209     13.04840      3.47294         0.353149     -0.339134     -0.575155
68   2      7.86561      1.41433      5.20377         0.018269      0.130162     -0.483849
69   2      6.27556     12.91017      6.65800        -0.699790      0.193914     -0.160624
70   2      7.89586      1.35185      8.12002         0.398414     -0.292705      0.731890
71   2      6.44018     12.99270     10.02879        -0.068613      0.006996     -0.171337
72   2      8.14930      1.61516     11.43129        -0.003870     -0.613689      0.354580
73   2      6.89350      3.49266     13.20031        -0.447936     -0.360354     -0.105613
74   2      8.39185      5.13269      1.76909         0.585415     -0.142974     -0.445355
75   2      6.78201      3.50346      3.27032        -0.042891     -0.118950      0.427595
76   2      8.41060      5.30999      5.12109        -0.140879     -0.510628      0.178531
77   2      6.67328      3.46047      6.72198        -0.376924      0.823040     -0.148702
78   2      8.47267      5.14460      8.65434        -0.179188      0.253595     -1.122005
79   2      6.74149      3.43508      9.79060        -0.278862     -0.313544      0.199022
80   2      8.51696      5.12829     11.49119        -1.386325     -0.463094     -0.153365
81   2      7.11082      6.80807     13.17518        -0.845354      0.222462     -0.424309
82   2      8.56849      8.34040      1.61689        -0.031110      0.917395     -0.511152
83   2      6.92608      6.91413      3.21990        -0.441166     -0.203840      1.051731
84   2      8.53030      8.46749      5.20168         0.035952     -0.356309      0.060033
85   2      6.94338      6.87258      6.86841        -0.667617     -0.553399      0.178845
86   2      8.55104      8.65480      8.28819        -0.187955      0.086884      1.080548
87   2      6.81580      7.11471     10.21505        -0.187126     -0.392557     -0.441633
88   2      8.67145      8.76639     11.46719        -0.079164     -0.442026      0.347269
89   2      6.65762      9.93936     13.14754         0.272785      0.294214      0.544820
90   2      8.26452     11.69499      1.59889        -0.159283     -0.107497      0.026834
91   2      6.90440      9.84665      3.35788        -0.754470      0.267539     -0.352377
92   2      8.26012     11.38369      5.07617        -0.167477      0.297249      0.194080
93   2      6.49642      9.80375      6.73297        -0.283391      0.565571     -0.211480
94   2      8.10035     11.57289      8.14419         0.290672     -0.489519      0.619010
95   2      6.52829      9.99777     10.13893         0.150221     -0.080476     -0.679628
96   2      8.28489     11.63519     11.75159         0.019155      0.007091     -0.564480
97   2      9.99008     13.17704     13.16068        -0.294775      0.563152      0.687862
98   2     11.16039      1.62483      1.79538         0.470553     -0.071036      0.363255
99   2      9.65195     13.24522      3.59216         0.317538      0.240623     -0.469827
100   2     11.60789      1.75709      5.00592         0.117666     -0.474371      0.109826
101   2      9.89664     13.10543      6.53140         0.239755      0.550792      0.301349
102   2     11.53359      1.46508      8.21363         0.575213      0.073159     -0.269820
103   2      9.75636     13.04886      9.74846         0.230464      0.401739      0.374455
104   2     11.45039      1.65553     11.56239         0.112423     -0.006144     -0.090335
105   2      9.72809      3.20358     13.26435        -0.084098     -0.293621      0.382412
106   2     11.17149      4.81234      1.91511         0.158029     -0.401949     -0.609899
107   2      9.53206      3.15939      3.58751         0.256845     -0.183245      0.043050
108   2     11.40719      4.60264      5.26018        -0.385421      0.104909      0.150277
109   2      9.58195      2.99386      6.66786         0.469522      0.636769      0.299167
110   2     11.63759      4.71677      8.22158        -0.200588     -0.488242      0.144405
111   2      9.78030      2.94488      9.76367         0.295874      0.413654     -0.487439
112   2     11.14309      4.76317     11.56379         2.180768     -0.500647     -0.144934
113   2     10.03787      6.81590     13.11677        -0.087023     -0.411997     -0.138601
114   2     11.54209      8.18823      1.58364         0.647505      0.671484      0.732153
115   2     10.05312      6.84149      3.47809        -0.049581     -0.536633      0.251229
116   2     11.73069      8.33370      5.06812         0.077924     -0.003674      0.121629
117   2     10.08362      6.76550      7.00106         0.316100     -0.326897     -0.603677
118   2     11.80219      8.48340      8.42977         0.752665     -0.828758     -0.930461
119   2     10.20246      6.80342     10.03217         0.094805      0.674554     -0.553189
120   2     11.90269      8.42554     11.61699        -0.730106     -0.470654     -0.144229
121   2     10.25727     10.16444      0.04055        -0.496264      0.211792     -0.048183
122   2     11.57119     11.76859      1.95820        -0.112172      0.768399     -0.378879
123   2     10.06968      9.89079      3.32419         0.037004      0.523117      0.247138
124   2     11.74719     11.70009      4.94761         0.247379     -0.173424     -0.255619
125   2     10.22165     10.17491      6.71700         0.298325     -0.155393     -0.031323
126   2     11.93179     11.82349      8.20559         0.331073      0.050527      0.220301
127   2     10.45123     10.16230      9.96381        -0.914346      0.848507     -0.150800
128   2     11.80329     11.93219     11.54839         0.094420     -0.202626     -0.132399
