ITEM: TIMESTEP
0
ITEM: NUMBER OF ATOMS
128
ITEM: BOX BOUNDS pp pp pp
0.0 13.2781843431999995 
0.0 13.2781843431999995
0.0 13.2781843431999995
ITEM: ATOMS id type x y z fx fy fz
1   2      0.27646      0.13736     12.90459         0.366239     -0.555635     -0.725263
2   2      1.81079      1.96095      1.30584         0.160988     -1.135965      0.047231
3   2      0.04035      0.05801      3.23675         0.415769     -0.801608      0.039689
4   2      1.90087      1.50819      5.19211        -0.495732     -0.199613      0.323199
5   2      0.25453     13.16219      7.04995        -0.862667      0.302805      0.057411
6   2      1.70330      1.81229      8.56490         0.153946     -0.746686     -0.162419
7   2      0.11835      0.04673      9.97046        -0.230723     -0.291240      1.205278
8   2      1.61557      2.16730     11.46559         0.917100     -0.499410      0.271188
9   2     13.12929      3.20970      0.01510        -0.845011      1.484234     -0.070212
10   2      1.45144      4.60840      1.90934         0.269089      0.894532     -1.059460
11   2     13.00259      2.71147      3.37303        -0.076263      0.167643     -1.118113
12   2      1.31225      4.44995      4.55673         0.183603      0.691938      1.853645
13   2      0.12713      3.06459      6.78022        -0.205702      1.088084     -0.489716
14   2      1.59963      5.27464      8.67501        -1.255042     -0.886358     -0.578177
15   2     13.23149      3.40481      9.84647        -1.194958      1.233290      0.325928
16   2      1.41925      5.16918     11.55499         0.496829     -0.505486      0.234094
17   2     13.18879      6.38421      0.14237         0.108219     -0.570908      0.041619
18   2      1.88235      7.90414      1.81305         0.106074      0.948631     -0.467495
19   2     13.19739      6.66803      3.23651        -0.071528     -0.231606      0.673914
20   2      1.69882      8.22974      5.10807        -0.906067      0.375666     -0.630224
21   2     12.94329      6.58621      6.41793         1.469069     -0.132844      0.035346
22   2      1.44659      8.11868      8.18100         0.893290     -0.675336      0.008922
23   2     13.14589      6.95528      9.97535        -0.765959     -0.465141      0.643495
24   2      1.78106      8.11443     11.97049         0.815424     -0.841948     -0.532772
25   2      0.25270      9.75227     13.24559        -0.185667      1.109305      0.609032
26   2      1.79799     11.70749      1.13551        -0.551797     -0.242655     -0.137221
27   2      0.27497     10.33704      3.52368         0.759812     -0.056245     -0.727081
28   2      1.87731     11.74179      5.52344        -0.417296     -0.199402     -1.271239
29   2      0.20989      9.95944      6.85240        -1.074082      1.103774     -1.002664
30   2      1.62198     11.46409      8.68107         1.052464     -0.351944      0.259455
31   2     13.10899      9.83501     10.02378         1.482893      1.039131      0.370683
32   2      1.95033     11.13019     11.62329         0.243767      0.812372     -0.806007
33   2      3.45349      0.46502     12.59449        -0.223065     -0.576212     -0.372066
34   2      4.97884      1.25779      1.41618        -0.686198      2.409022      0.260716
35   2      2.80361     13.26971      2.98697         0.900491      0.774030      0.848255
36   2      4.85801      1.51423      5.32540        -0.172572      1.828415     -0.742574
37   2      3.46307      0.01095      7.15707        -0.800163      1.241589     -0.566091
38   2      5.39468      2.20609      8.30570        -1.096914     -0.524944     -0.429364
39   2      3.46861      0.16922      9.77475         0.385390     -0.227785      1.860496
40   2      5.38988      2.37387     11.42519         0.224956     -1.260128     -0.264603
41   2      3.62948      3.47216     13.12359        -0.926508     -0.386758      0.114830
42   2      5.18793      4.60336      1.77757        -0.747416     -0.355069      1.192993
43   2      3.35221      2.89811      3.36166         1.057268      0.447415     -0.221675
44   2      4.79274      4.87132      5.07379         1.038241     -1.576756     -0.159438
45   2      3.22109      3.39545      7.03935        -0.006357     -0.368735     -1.273214
46   2      5.07902      5.34801      7.89415         0.354340     -0.499945      1.373172
47   2      3.46810      3.57478      9.79463         0.350910      0.582307      1.014746
48   2      5.28872      5.15616     11.65899        -0.241725      0.248174     -0.700738
49   2      3.54132      6.16582      0.34042        -0.942468      0.766457     -0.091965
50   2      4.95043      8.21294      1.92319        -0.316343     -0.443087      0.481855
51   2      3.17715      6.39400      3.67089        -0.752308     -0.540088     -2.139189
52   2      4.51929      7.87568      5.31513         0.361124     -0.540674     -0.820501
53   2      2.83645      6.03776      6.50932        -1.130306      1.039462     -0.380878
54   2      5.20234      8.16400      8.16960         0.149947      0.119527     -0.013630
55   2      3.30823      6.73035     10.02513         0.700034     -0.519611     -0.039714
56   2      4.76060      8.04359     11.85179         0.801854     -0.083531     -0.087736
57   2      3.67412      9.88107      0.18516        -1.442884     -1.216563     -0.498996
58   2      4.78452     11.89449      1.25446         0.752228      0.539047      0.796913
59   2      3.16227     10.50036      3.29585        -0.431248     -1.291131     -0.297044
60   2      4.59658     12.03939      5.02996        -0.227760     -0.805412     -0.677719
61   2      3.32167      9.75539      6.73023        -0.220837      0.566264      0.631418
62   2      4.84264     11.39059      8.30516         1.241659     -0.949968      0.790555
63   2      3.36416      9.45701      9.75883        -0.036992      0.871219      0.499973
64   2      5.19634     11.55629     11.63609        -0.960510     -0.068641     -0.609377
65   2      6.71048      0.14337     12.97359        -0.279720      0.325105     -0.447627
66   2      8.29805      1.30946      1.46611         0.029329      1.058020      0.816059
67   2      6.43951      0.21747      3.30468         0.021809     -0.244158      0.856240
68   2      8.32240      1.32609      4.88799         0.590398     -0.091123      0.648362
69   2      6.48694     13.08209      6.47225         1.626346     -0.040099      1.241281
70   2      8.02489      1.69004      8.18081         0.060267     -0.162276      0.559699
71   2      6.39645      0.08224      9.76203         0.079390     -0.213058      0.600069
72   2      8.21790      2.16648     11.50209        -0.310833     -0.449560      0.317312
73   2      7.07793      3.70232      0.19775        -0.173646     -1.142400     -0.781096
74   2      8.48289      4.97118      2.01800         0.675091      0.228138      0.442984
75   2      6.83585      3.31444      3.67269        -0.540875     -0.581589     -0.632721
76   2      8.56448      5.11385      4.91213         0.485757     -0.329032     -0.644181
77   2      7.02541      3.56990      6.45393        -0.629842     -0.043916      0.328319
78   2      8.59752      5.57734      8.00038         0.107648     -0.686604      0.070095
79   2      6.94408      3.93449      9.68743        -0.059266      0.569154     -0.481290
80   2      8.44237      5.27696     11.53789         0.394606      0.085810      0.805725
81   2      6.67454      6.61254      0.25865         0.361590      0.284624      0.262841
82   2      7.95895      8.27818      2.19119        -0.374729      0.158345     -2.167070
83   2      6.48127      6.31470      3.40738        -0.203951      0.731565      0.547420
84   2      8.53619      8.55390      4.65588        -0.081229     -0.142492      2.498135
85   2      6.83252      6.71072      6.35659         0.327828      0.981819     -0.530919
86   2      8.59631      8.52673      8.28434        -0.996874     -0.847399     -1.366797
87   2      6.86579      6.95533     10.06617        -0.517723     -1.433303     -0.918792
88   2      8.45127      8.17303     11.91239         0.660707      0.285073      0.434312
89   2      6.59053      9.70411      0.05721         0.173233     -0.025824      0.024926
90   2      7.67282     11.55359      1.83946         1.149534      0.228111     -1.317692
91   2      5.97927     10.35221      3.39842        -0.575306     -0.872302     -0.302790
92   2      8.21417     11.42649      4.75321        -0.632945      0.315745      0.228997
93   2      6.26879      9.61533      5.92680         1.326584      1.270035      1.579524
94   2      7.79093     11.42549      8.25043        -0.018086     -0.262511      0.358372
95   2      6.63318      9.56538     10.23355        -0.373930      1.356897     -0.278942
96   2      8.05550     11.68409     11.47569         0.257086     -0.407757     -0.480342
97   2      9.75941      0.02310     12.86889        -0.153540     -0.841318     -0.646173
98   2     11.55639      1.15911      1.10047        -0.098132      0.988988      1.662161
99   2      9.77347     12.83809      3.09925         1.193421      0.662248     -0.180177
100   2     11.92449      1.19562      5.27292        -1.442953     -0.198056      0.624072
101   2      9.77951      0.01980      7.06536        -0.048005     -0.149107     -1.266665
102   2     11.69719      1.66818      8.44862        -0.604410     -0.324292     -0.112289
103   2      9.66925      0.45087     10.05063         0.213659     -1.031742     -0.377758
104   2     11.63139      1.77427     11.51109        -0.229920      0.013046     -0.314389
105   2      9.97238      3.34848      0.04735         0.286494      0.143077      0.113648
106   2     11.45989      4.66299      2.10109         0.776471      0.713149     -1.024609
107   2     10.04246      2.71100      3.17804        -0.477319     -0.810737      0.454430
108   2     11.41659      4.41101      5.04921         0.806183      0.046670     -0.330891
109   2      9.89748      2.94028      6.71727         0.099201      0.278384     -0.251711
110   2     11.60119      4.95655      8.15836         0.060604     -0.136746     -0.267494
111   2      9.83762      3.56857      9.78066         0.429856     -0.297923     -0.340734
112   2     11.34439      5.22610     11.55189         1.224666     -1.092795      0.911661
113   2     10.00089      6.62629      0.34725        -0.118657     -0.156458     -0.083452
114   2     11.89129      8.31855      1.37922        -0.977931      0.655596      1.310097
115   2     10.28020      6.86600      3.28188         0.040271      0.071207     -0.390368
116   2     11.86859      8.71455      4.89253        -0.256191      0.019399      0.056671
117   2     10.32704      6.72599      6.05385        -0.680053      1.038002      1.276832
118   2     11.51439      8.73374      8.31226        -0.948724     -0.698839     -1.370683
119   2     10.20469      6.77440      9.81702        -0.412678      1.019955     -0.202587
120   2     11.56099      8.49038     11.75409        -0.943721     -1.205129      0.567927
121   2      9.67381     10.33122      0.20372        -0.454163     -0.380005      0.296034
122   2     12.03669     11.74529      1.47059        -0.489806     -0.986227     -0.315033
123   2     10.12537      9.92005      2.93212         0.698900      0.719748     -0.191019
124   2     11.62059     11.60489      4.99039         0.023208      0.622696      0.087140
125   2      9.80000     10.46504      6.64507         0.660147     -0.897951      0.511276
126   2     11.40379     11.91149      8.61331         0.504046     -0.986689      0.581655
127   2      9.69615      9.99570     10.11338         0.605625      0.745154      0.397254
128   2     11.52809     11.26519     11.77729         0.443255      1.494392     -0.156718
