ITEM: TIMESTEP
0
ITEM: NUMBER OF ATOMS
144
ITEM: BOX BOUNDS pp pp pp
0.0 12.5220000000000002 
0.0 12.5220000000000002
0.0 35.7286733700000028
ITEM: ATOMS id type x y z fx fy fz
1   2      4.20665     10.87892     33.83624        -0.844569      0.135515      0.009169
2   2      3.93641      0.74986     35.16684        -1.021266      0.416299     -0.265377
3   2      2.06036     12.46167      1.86464         0.076554      0.012042      0.091224
4   2      1.18112      1.95624     35.68651         0.414996     -0.254194      1.223920
5   2     12.46096     12.41608      3.95594         0.968821      1.239540      0.209125
6   2      2.15426      2.43052      4.31964         0.100533     -0.548133     -0.792933
7   2      2.41096     12.48072      5.68124        -0.059298      0.613889      0.430955
8   2      0.42829      2.22840      6.33264        -0.443331      0.106207      0.300025
9   2      0.37862     12.40201      7.87764        -0.339313      1.248458      1.528567
10   2      2.11574      2.69530      8.64954        -0.601709     -0.660858      0.077693
11   2      1.87332     11.68889     10.73904        -0.966129     -0.126545     -0.734332
12   2     12.42056      1.82278     10.65174         0.463565     -0.920379      0.357926
13   2     11.96143     11.90808     12.97174         0.804916      0.437656     -0.342389
14   2      1.69430      1.19824     12.58604        -0.140842      0.447050      0.117681
15   2      2.70160      0.30724     14.92614        -0.150804     -0.019727      0.606952
16   2      0.47245      2.38790     15.61804        -0.085864      0.153896     -0.385173
17   2      1.66423      2.33647     33.19854         0.343591      0.433638     -0.318910
18   2      1.87335      6.75966      0.29344         0.085384      0.308807     -0.163916
19   2      1.88379      4.26249      2.10894        -0.634888      0.372606      0.028625
20   2     12.25632      6.44990      2.19154         0.042452      0.358926      0.353490
21   2     11.13641      3.89041      3.42634         0.282069      0.005844      0.776423
22   2      2.20358      7.08742      3.62194        -1.193211     -0.739068     -0.446228
23   2      1.09968      5.04171      5.04154        -0.243640     -0.654496      0.050338
24   2     11.60256      6.66620      6.09604         0.989253      1.216769      0.662991
25   2      0.09052      4.85601      7.70624         0.728699     -0.836191      0.560037
26   2      2.33273      6.27229      8.80644        -0.793409     -0.240687      0.023750
27   2      1.67128      4.37246     10.89164         1.886873      0.538078     -1.391776
28   2      0.08235      6.78964     10.68894         0.119386      0.423743      0.010826
29   2      0.03770      3.71274     12.66894         0.349736     -0.399109      2.093683
30   2      1.50655      6.52812     12.98154         0.447374     -0.366970      0.444519
31   2      2.20617      4.61128     15.10904        -0.809049      0.007303      0.504061
32   2     12.27196      5.59653     15.57174        -0.556535     -0.007958     -0.328853
33   2     12.10191      8.81572      0.05504        -0.338528      0.889574     -0.503005
34   2      1.98171      9.07409     34.25634         0.532772     -0.008680      0.781511
35   2      1.61601      9.10202      1.59974         0.443170      0.678001      1.051058
36   2     11.61730     10.95532      1.94034         0.781327     -0.624017     -1.843049
37   2     12.16748      8.69075      3.99784        -0.013226      0.021714      0.007406
38   2      2.24738     10.38689      3.98574        -0.176009     -0.154295     -0.486396
39   2      1.83099      8.27852      6.10294        -0.102785      0.338508      0.303306
40   2     12.48353     10.67236      6.01314        -0.248133     -1.641399     -0.264312
41   2      0.19048      8.41976      8.40314         0.272989      0.446085     -0.221782
42   2      2.53497     10.74526      7.94754         0.366141     -0.693739      0.322438
43   2      2.41542      8.63071     10.88914        -1.689792     -0.150256     -0.092145
44   2     11.86276     10.29023     10.61994         0.781260     -0.445936     -1.157768
45   2      0.15476      9.09020     12.72824         0.737258     -0.928740      0.717036
46   2      2.42705     10.55896     13.17604         0.146597     -0.065526      0.923794
47   2      1.38742      8.03047     15.40984         1.733435     -0.328165     -0.045434
48   2     11.42829      8.26658     14.96484        -2.197404     -0.301656      0.056769
49   2      6.50446      0.33537     33.47314        -0.421608     -0.313967      0.405983
50   2      8.58330      1.75574     32.61204         0.582954     -0.307757     -0.013725
51   2      6.23212      0.00445      0.46814         0.456040     -0.092218      0.877313
52   2      3.87672      2.40909      1.62914        -0.198716     -0.503720      0.266804
53   2      4.56096      0.18102      3.85864        -0.499541     -0.137878     -0.157696
54   2      5.66029      2.65630      4.51724         1.205143     -0.269384     -1.343316
55   2      5.75467     12.40201      6.86574        -0.913673      0.893983     -0.054143
56   2      4.06227      2.21303      6.50444        -0.779664     -0.445118      1.148107
57   2      3.98670      0.23225      9.42844         0.345825      0.615606     -1.072146
58   2      6.46237      2.10383      8.67164        -0.950021      0.733097      0.099835
59   2      6.56247      0.47032     11.03494         0.120390      0.068847      0.379805
60   2      4.05496      2.49849     10.93464        -0.052473      0.443335      0.502620
61   2      4.38425     12.49707     12.82624        -0.385864      1.515783     -0.429872
62   2      6.14863      2.52954     13.32744        -0.505373     -0.434100     -0.637508
63   2      5.49122      1.01532     15.75794         0.138080     -0.282147     -0.527428
64   2      3.25137      2.50762     16.49024        -0.367794     -0.225114     -0.249324
65   2      2.54930      4.39672     35.12104         0.076665     -0.884925     -0.280272
66   2      7.11007      5.61857      0.04056         0.336350      0.082900     -0.467224
67   2      6.39470      3.50285      1.47704        -0.463015     -0.104341      0.446116
68   2      4.22751      6.10813      1.73654         0.280787     -0.000021     -0.315648
69   2      3.79809      4.57172      4.13204         0.362516      0.879765      0.063124
70   2      6.57037      5.61453      3.40424        -0.017540      0.260075      0.035157
71   2      6.07086      4.70454      6.23224         0.673354     -0.013412     -0.235768
72   2      3.89758      6.38125      6.40524        -0.585266      0.411860     -0.144983
73   2      4.26836      4.25356      8.40254         0.340688     -0.140318      0.441784
74   2      6.15407      6.21508      8.57724         0.689698      0.244853      0.879198
75   2      6.53884      3.92642     10.88094        -0.013583     -0.091750     -0.110840
76   2      4.38157      5.77439     11.04424        -0.282887      0.511340     -1.359400
77   2      4.12771      4.63549     13.38164         0.649708     -1.132421     -0.713831
78   2      6.31286      6.58953     12.96544        -1.419417     -0.279211      0.464052
79   2      5.58227      3.81942     15.93844        -0.027874      0.375780     -0.187004
80   2      4.29459      6.50836     15.25264        -2.495182      1.202505     -0.991503
81   2      4.67096      8.16224     34.95344        -0.851731     -0.618752      0.190637
82   2      6.55614     10.15387     34.73314         1.289745      1.170939      0.866713
83   2      6.51999      7.83834      1.50164        -0.187307      0.484860      0.507591
84   2      4.05150     10.10123      1.05214         0.457588      0.759654      0.493752
85   2      4.33772      8.46796      3.77054         1.776241      0.558125     -0.253555
86   2      6.30910     10.50481      3.43274        -0.551696      0.397939     -0.437842
87   2      6.39377      7.66232      6.27974         0.076263      0.538830     -0.161078
88   2      4.48014     10.27850      5.87644        -0.091186     -0.528548      0.084325
89   2      4.06339      8.29382      8.82914         0.922734      0.549430     -0.903242
90   2      6.22751     10.12669      8.54144        -0.405055     -0.463444     -0.480016
91   2      6.33157      8.16819     10.78904         0.159244      0.678486     -0.842640
92   2      4.46283     10.49589     10.82234         0.798240     -0.562505      0.142121
93   2      4.22180      8.30602     12.82464         0.162248      0.310230      0.871807
94   2      6.25816     10.76802     13.22064        -0.221816     -1.275840     -1.661968
95   2      6.58454      9.02508     15.23904        -0.730066     -0.593202      0.209137
96   2      3.74609      9.32416     15.95554         0.234278     -0.364752     -0.866722
97   2      9.69257      0.16949     34.89274        -0.200450      0.696405     -0.555414
98   2     11.18073      2.51090     34.39604        -0.159763     -0.168426     -0.412453
99   2     11.36903      1.32201      1.17674         0.216359     -0.349398      0.367748
100   2      8.59222      1.97606      1.43644         0.392042     -0.280312     -0.188478
101   2      7.27613      0.61169      3.39784        -0.139122     -0.417754      0.153751
102   2     10.03154      1.29798      3.59264         0.533155      0.756785      1.027086
103   2     10.36012      0.38053      6.35604         0.852883     -0.445906      0.095582
104   2      8.04103      1.72575      6.40844        -0.803064      0.471906     -0.731167
105   2      7.96116     12.37945      8.42874         1.087309     -0.313554      0.561206
106   2     11.15085      2.60363      8.54584         0.263581     -1.084925     -0.906259
107   2     10.22767     12.24008     10.14734        -0.109612      2.363652      0.142196
108   2      8.92994      2.37537     10.40044         0.128594     -3.459901      3.716923
109   2      9.04876      0.03718     12.68394        -0.506210      1.142284     -0.739211
110   2     10.26236      2.65473     13.22734        -1.373345     -0.397800      0.262463
111   2     10.56026      0.40652     15.03954        -0.347842      0.731429      0.205611
112   2      7.94349      2.40992     15.45944         0.337385     -0.794699     -0.054645
113   2      7.95548      2.98666     34.84184        -0.373800      0.725650     -0.223030
114   2     10.66264      6.75667     35.29294        -0.612532     -1.759097      0.103884
115   2     11.63916      4.23811      0.78334         0.511430     -0.608455     -0.968013
116   2      9.38575      5.46610      1.77184        -0.985472     -0.127376     -0.602329
117   2      8.35574      3.52402      4.08334        -0.333494      0.329010     -0.167188
118   2      9.96492      6.47304      4.15794        -0.758587      0.091165     -1.150562
119   2     10.19859      3.44195      6.17894         0.422537      0.351291     -0.692963
120   2      8.82652      5.91994      6.60574        -0.702928      0.006728      0.334833
121   2      8.80492      3.99655      8.66034        -1.294650      3.455918     -3.005136
122   2     10.59305      6.58324      8.77954        -0.196762     -0.051336     -0.190418
123   2     10.97768      4.49397     10.50604        -0.275649     -0.443192      0.035732
124   2      8.32339      6.01832     11.19554         0.367848     -0.610269     -0.726350
125   2      7.86355      4.70748     13.90604         0.991976     -0.439438      0.294656
126   2     10.83129      5.81071     12.84994        -0.422047      0.646444      0.818495
127   2     10.29635      3.59789     15.95314         0.806307     -0.050363     -0.657400
128   2      6.35221      6.38244     16.55174         2.543669      0.322102      0.989221
129   2      7.15716      7.77055     33.92954         0.525060     -1.228198      0.021179
130   2      9.23421      8.99939     35.30354        -0.560269      0.929444     -0.426736
131   2      9.80502      8.65271      2.15764         0.442141     -0.013956      0.370376
132   2      8.64558     11.42438      1.20604        -0.213013     -0.817192      0.617035
133   2      7.88228      8.50848      4.12014        -1.933475     -0.986431     -2.333200
134   2      9.88152     11.20910      3.83984        -1.294959     -1.318757      1.266810
135   2      9.53837      8.75772      5.89954         2.382090      0.663326      2.219599
136   2      7.94473     11.11435      5.90374         0.371259     -0.341615     -0.412864
137   2      8.56317      8.33822      8.52014        -1.068310      0.173031     -0.066052
138   2     10.50341     10.43442      8.18874         0.113672     -0.445251     -1.129346
139   2      9.81460      8.29089     11.04004         0.594319     -0.141728     -0.487763
140   2      8.14347     10.54632     10.49764        -0.387963     -0.527150      0.776771
141   2      8.66127      7.60423     13.51354         1.056542      0.540507      1.201166
142   2      9.94498     10.08588     13.05984        -0.142761     -0.720584      0.991903
143   2      9.02213      8.76401     16.24424         0.291995     -0.157713     -0.554688
144   2      7.81087     11.69962     14.97684         0.998073      0.746900      1.488629
