ITEM: TIMESTEP
0
ITEM: NUMBER OF ATOMS
144
ITEM: BOX BOUNDS pp pp pp
0.0 12.5220000000000002 
0.0 12.5220000000000002
0.0 35.7286733700000028
ITEM: ATOMS id type x y z fx fy fz
1   2     12.49516     12.37594     35.30281        -0.091965      0.226942     -0.086310
2   2      1.77159      2.04490     35.56961         0.013222      0.563488      0.015358
3   2      1.92423     12.47190      1.70244        -0.530593     -0.308410      0.867835
4   2     12.31097      1.98983      2.02784         0.241968      0.479552     -0.035542
5   2     12.30405     12.24669      3.88514         0.967339      0.736988      0.318812
6   2      1.93986      2.02526      3.81334         0.030679      0.128737      0.477495
7   2      2.18697     12.43279      6.08294        -0.103783      1.268364      0.394876
8   2      0.21541      1.94688      6.04884        -0.256407     -0.018599      0.196680
9   2     12.50970      0.02250      8.43374         0.510073     -0.280189      0.038234
10   2      2.01014      2.12659      8.28424         0.048732      0.032984      0.060934
11   2      2.17793      0.17912     10.42924        -0.323457     -0.973732     -0.027216
12   2     12.28811      1.97740     10.64654         0.306599      0.167909     -0.641552
13   2     12.50619     12.31448     12.54494         0.073781     -0.223553      0.417355
14   2      1.83959      1.88432     12.50274         0.644562      0.584530      1.034500
15   2      2.11508     12.26374     14.73154        -0.024462      0.144165     -0.392895
16   2      0.09870      2.00467     14.86794         1.513349      1.382991     -0.242529
17   2     12.35519      4.20931     35.50431         0.376605      0.047599      0.342424
18   2      2.06310      6.21441     35.47281        -0.103192     -0.294250      0.099761
19   2      2.13189      4.14182      1.92624        -0.280824     -0.024966     -0.405647
20   2      0.02641      6.47714      1.96024        -0.476927     -0.816253      0.135397
21   2     12.42608      4.47517      3.89234        -0.563042     -0.793423      0.257435
22   2      2.13046      6.09255      4.02424         0.685288      0.357958      0.093631
23   2      1.93140      4.12523      6.08604         0.762349      0.137759     -0.046818
24   2      0.18283      6.40748      6.22494        -0.202860     -0.283862     -0.264885
25   2     12.50539      4.11966      8.16434         0.306620     -0.194568      0.372326
26   2      2.00625      6.35720      8.35804         0.207067     -0.565348     -0.561164
27   2      1.98563      4.28649     10.61434        -0.485701     -0.622316     -0.574425
28   2     12.47731      6.35451     10.40934         0.300291      0.028825      0.446223
29   2      0.03473      4.15692     12.71884         0.098278     -0.034742     -0.051040
30   2      2.01658      6.37703     12.54954        -0.195630     -0.003096      0.153970
31   2      1.76486      4.21413     14.86714         0.533905     -0.012878     -0.090336
32   2      0.22865      6.63606     14.75434        -0.201049     -0.272735     -0.048355
33   2     12.44914      8.07359     35.49031         0.373364      0.544758     -0.863282
34   2      1.78032     10.27940     35.35791         0.786485     -0.115079     -0.025009
35   2      2.25505      8.07644      1.94184         0.345630      0.847772      0.092265
36   2      0.17210      9.94370      1.81434        -0.388811      0.658045      0.736471
37   2      0.28861      8.33626      4.20674        -0.461626      0.254876     -0.363127
38   2      2.18190     10.61541      3.90934        -0.383550     -0.445347     -0.316597
39   2      2.09729      8.68465      6.26694         0.100107     -0.600877     -0.082623
40   2      0.06752     10.69352      6.20974         0.057572     -0.776590      0.021147
41   2     12.45255      8.42285      8.32014         1.522306     -0.823218      0.030928
42   2      2.18769     10.49789      8.42934        -0.069904      0.417915      0.081583
43   2      2.02693      8.33076     10.31914         0.136381      0.551876      0.501817
44   2     12.51080     10.49879     10.42224         0.314499     -0.394203      0.139740
45   2      0.07423      8.38911     12.51594        -0.483271      0.095477     -0.196068
46   2      2.33106     10.24802     12.59444        -0.516343      0.641387     -0.319210
47   2      2.31653      8.54206     14.84424        -0.302115     -0.525987      0.076950
48   2      0.06090     10.17172     14.66114        -0.098250      0.267436      0.157049
49   2      3.78711      0.02310     35.54291         0.294263     -0.370574     -0.554294
50   2      6.05659      1.58853      0.04264         0.145983      1.083885     -0.989639
51   2      6.67021      0.17330      2.15154        -0.634546     -0.669772      1.614721
52   2      4.13906      2.00341      1.97604        -0.176134      0.779876     -0.809348
53   2      4.16765      0.30445      3.98934         0.493904     -0.739792      0.922489
54   2      6.46792      2.14195      4.25334        -0.128657     -0.156434      0.154635
55   2      6.39912      0.13931      6.29234        -0.350699      0.114233      0.337048
56   2      4.36242      2.38264      6.39774        -0.735831     -1.232274     -0.631216
57   2      4.10560      0.13941      8.45234         0.297225     -0.451236     -0.517931
58   2      6.01995      2.11615      8.84124         0.811714     -0.327030     -1.307437
59   2      6.28339     12.45205     10.65314        -0.269380     -0.277414     -0.007613
60   2      4.08068      2.21006     10.73594        -0.424863     -0.299441      0.500481
61   2      4.26834     12.33573     12.72354        -0.581357      0.117916     -0.434728
62   2      6.24168      2.23838     12.69614        -0.274616      0.211422     -1.068184
63   2      6.07075      0.37294     14.67784         0.569492     -0.945365      0.668218
64   2      3.97752      2.13806     14.62654        -1.271824     -0.289170     -0.154053
65   2      4.12395      4.21019     35.50661         0.047092     -0.568281      0.164285
66   2      6.23734      6.49958     35.65371         0.150879      0.178158     -0.733981
67   2      6.26152      4.05582      1.93864         0.187222     -0.015859     -0.725889
68   2      4.23527      6.19027      1.69594        -0.147698     -0.066282      0.975097
69   2      4.36319      4.06236      3.98074        -0.770429      0.044164      0.559141
70   2      6.16528      6.19016      3.94394        -0.097975      0.252334      0.409197
71   2      6.17334      4.30633      6.64164         0.740630      0.069601     -1.051624
72   2      4.11087      6.32521      6.08784        -0.383685     -0.358082      0.022755
73   2      4.03969      4.16660      8.48224        -0.847954      0.402329     -0.305726
74   2      6.24575      6.30766      8.44174         0.293771      0.509848      0.123720
75   2      5.98412      4.28536     10.48394         1.280089      0.315795      1.017165
76   2      4.01839      6.21806     10.39854         0.033368      0.501762      0.198646
77   2      3.93442      4.32733     12.69524         0.420240     -0.560744      0.198032
78   2      6.16039      6.25161     12.76764         0.408342     -0.514670      0.437557
79   2      5.96367      3.86966     15.01284         0.616249      0.915110     -0.336768
80   2      3.86216      6.17775     14.74454         0.360097      0.097574      0.193111
81   2      4.27604      8.55142     35.71581        -0.377724      0.364624     -0.184796
82   2      6.32113     11.16579     35.58471        -1.234783     -1.372417     -0.172008
83   2      6.38011      8.60348      1.79924        -0.226763      0.585108      0.059852
84   2      4.23091     10.63857      2.01034         0.369284     -0.162521     -0.233640
85   2      4.32817      8.43777      4.01154        -0.257915     -0.072286     -0.346835
86   2      6.37407     10.68068      4.32874        -0.348689      0.074532     -0.692376
87   2      6.13346      8.26361      6.20384         0.490089      0.231451      0.141662
88   2      4.09667     10.59265      5.96654         1.120705     -0.295028      0.645070
89   2      4.12225      8.32875      8.23564        -0.212240     -0.393413      0.088183
90   2      6.03627     10.25795      8.34414         1.047310      0.736190     -0.498769
91   2      6.16299      8.08654     10.57514         0.898274     -0.068510     -0.616359
92   2      4.35017     10.22626     10.47834        -0.866210      0.785130      0.062010
93   2      4.19628      8.20807     12.52664        -0.361045     -0.378711      0.602966
94   2      6.23153     10.14163     12.61354         0.674149      0.708214      0.258020
95   2      6.48266      8.38991     14.88954         0.854960     -0.755505     -0.287053
96   2      4.49910     10.13381     14.76864        -0.495777      1.127894      0.167577
97   2      8.55119     12.45957      0.09714         1.165271      0.937386     -0.819348
98   2     10.40855      2.12557      0.04114         0.089704     -0.189267     -0.528788
99   2     10.75077     12.15495      1.72134        -0.324531      0.103168     -0.037826
100   2      8.48865      2.24403      2.01404        -0.018220     -0.018736      0.103294
101   2      8.64258     12.52193      4.21594        -0.023804      0.135890      0.135885
102   2     10.58202      2.09049      4.29384        -0.296112      0.488155     -0.392430
103   2     10.55354      0.05679      6.33554        -0.655775     -0.356293     -0.229635
104   2      8.47739      2.32239      6.41844        -0.334009     -0.506658     -0.386889
105   2      8.25801      0.06661      8.37044         0.232097     -0.902706     -0.376444
106   2     10.61160      1.99143      8.28184        -0.556603      0.809682      0.581176
107   2     10.40083     12.33263     10.56114        -0.707854     -0.015954     -0.048339
108   2      8.32990      1.85875     10.34974         0.635803      0.996530      1.038630
109   2      8.32430     12.47531     12.76624         0.230973      0.106158     -1.027744
110   2     10.44244      2.11619     12.73574        -0.254004     -0.809479     -0.755374
111   2     11.08437      0.05889     15.03974        -1.683431     -1.844450     -0.312151
112   2      8.30989      2.04774     14.53794         0.220757      0.424081      0.741650
113   2      8.08908      4.58330     35.36931         0.510673     -0.376757      0.576934
114   2     10.37155      6.32753     35.51761        -0.528268     -0.361538     -0.323274
115   2     10.30056      4.36442      1.79014         0.122076      0.126004      0.441725
116   2      8.17278      6.45822      2.01654         0.474463     -0.406199     -0.416864
117   2      8.32976      4.21520      4.04254         0.346012      0.150712      0.181996
118   2     10.25093      6.50657      3.97764         0.335205     -0.274557     -0.165659
119   2     10.40645      4.37493      6.17144         0.432334     -0.294594     -0.528980
120   2      8.31282      6.25416      6.12374        -0.460490      0.237974      0.042017
121   2      8.41055      4.32155      8.35034         0.189491     -0.174861      0.736264
122   2     10.67687      6.19936      8.27264        -0.653959      0.180880      0.052632
123   2     10.66524      4.25039     10.53014        -0.417520     -1.050807     -0.648767
124   2      8.70657      6.22035     10.49524        -1.113356     -0.062153     -0.378387
125   2      8.27630      4.18596     12.56454        -0.138946      0.011771     -0.312074
126   2     10.50150      6.01960     12.61944         0.024257      0.925399      1.077814
127   2     10.50842      3.86875     14.74494        -0.149047      0.771792      0.529340
128   2      8.42168      5.83841     14.90644        -0.191588      0.299815     -0.448783
129   2      8.13893      8.70185     35.08811         0.100645      0.070534      0.774200
130   2     10.52246     10.32021     35.24471        -0.135106     -0.239618      0.255344
131   2     10.34077      8.32159      1.70664        -0.428179      0.497828      0.387831
132   2      8.52060     10.52065      2.07984        -0.116207     -0.749618      0.137831
133   2      8.04263      8.48094      4.06034         0.638368     -0.289882      0.231718
134   2     10.51363     10.23378      4.21894        -0.398283     -0.346977     -0.387878
135   2     10.46420      8.23274      6.16404         0.056579     -0.146588     -0.385698
136   2      8.37887     10.33285      6.33314        -0.164218      0.320863      0.231434
137   2      8.57724      8.22907      8.30414        -0.976040     -0.174771      0.234955
138   2     10.59435     10.16760      8.16754        -1.340302      2.074131      0.407919
139   2     10.40785      8.42518     10.48274         0.249044      0.306109      0.409121
140   2      8.15073     10.28412     10.54114         0.404412      0.222859     -0.377315
141   2      8.34331      8.16823     12.55654         0.242217     -0.073998      0.594681
142   2     10.39321     10.30397     12.80624        -0.173832     -0.012816     -0.015318
143   2     10.34298      8.05129     14.86254        -0.183346      0.136722     -0.625618
144   2      8.34481     10.75318     14.77514        -0.119174     -0.685619      0.237251
