ITEM: TIMESTEP
0
ITEM: NUMBER OF ATOMS
144
ITEM: BOX BOUNDS pp pp pp
0.0 12.5220000000000002 
0.0 12.5220000000000002
0.0 35.7286733700000028
ITEM: ATOMS id type x y z fx fy fz
1   2     12.38938      0.09930     35.56981         0.857807      0.348800      0.026098
2   2      2.14076      2.13771     35.59421        -0.339163     -0.283070     -0.084476
3   2      2.03543      0.06120      1.88414        -0.043552     -0.382339     -0.209424
4   2      0.16999      2.14416      1.96924        -0.389296      0.426205     -0.021418
5   2      0.03363      0.04335      4.02304         0.276811     -0.004600      0.270882
6   2      2.12231      2.32265      3.98674         0.410579     -0.713360      0.000219
7   2      2.05019     12.44342      6.07734         0.306974      0.075878      0.146576
8   2      0.11043      1.85835      6.26514        -0.427812      0.574538     -0.135162
9   2      0.12297     12.48193      8.54784        -0.645122     -0.537355     -0.469245
10   2      2.03564      1.87083      8.41744         0.421547      0.642864     -0.186946
11   2      1.98372      0.02099     10.64764        -0.046937     -0.644503     -0.025965
12   2     12.39850      2.30983     10.55234         0.727109     -0.440383      0.506367
13   2     12.35158     12.46779     12.53464         0.045444      0.013149      0.342692
14   2      1.92984      2.09478     12.68214        -0.109054     -0.073079      0.072966
15   2      1.85497     12.38858     14.66264         0.415407      0.479530     -0.171109
16   2     12.36571      2.06776     14.74524        -0.197677     -0.366338     -0.140293
17   2     12.51291      4.22237     35.69271         0.034139      0.172545     -0.172811
18   2      1.96638      6.35074     35.54641         0.335503     -0.193669      0.346177
19   2      2.18823      4.30169      1.85164         0.081646      0.037670      0.105855
20   2     12.48594      6.19263      2.10414         0.370199      0.391291     -0.383275
21   2      0.15595      4.31800      4.23564        -0.520903     -0.188768     -0.112460
22   2      2.08074      6.40126      4.29064         0.306806     -0.218110     -0.191579
23   2      2.26034      4.05744      6.17454        -0.157186      0.408703      0.288573
24   2     12.48875      6.22898      6.39754         0.002644      0.160870     -0.138721
25   2      0.30255      4.14880      8.33984        -0.856870     -0.456224     -0.507881
26   2      1.98737      6.23733      8.59114         0.926482      0.732940     -0.539930
27   2      1.99808      4.21716     10.55684         0.189767     -0.499715      0.172081
28   2     12.33523      6.23118     10.41414         0.643829     -0.614427      0.568555
29   2     12.42758      4.25635     12.82924        -0.064996     -0.057509     -0.663541
30   2      2.10865      6.12882     12.52714        -0.681959      0.693741     -0.004634
31   2      1.83398      4.02414     14.84974         0.431929      0.276899     -0.022313
32   2     12.28319      6.28518     14.77654         0.561511     -0.303320      0.106184
33   2      0.24229      8.49047     35.51691        -0.556797      0.268809      0.154550
34   2      2.24353     10.56327     35.49021        -0.512277      0.253568      0.225798
35   2      2.01007      8.33471      2.02734         0.312999     -0.102776      0.049676
36   2     12.45826     10.37917      2.06544         0.520465      0.300925     -0.486874
37   2      0.01858      8.38393      4.22874        -0.141561     -0.748542     -0.207437
38   2      2.09742     10.27950      4.17364         0.055428      0.466109     -0.673474
39   2      1.98663      8.41526      6.38844         0.147876     -0.650065      0.124275
40   2     12.49847     10.43693      6.26084         0.304368      0.316357      0.529191
41   2     12.49125      8.28285      8.55994         0.022934      0.106603     -0.608925
42   2      2.05137     10.28713      8.47464         0.280674      0.724578      0.005592
43   2      2.21639      8.39232     10.58134        -0.063940     -0.433702     -0.139428
44   2      0.04345     10.31460     10.57634        -0.453019      0.191160      0.050375
45   2     12.33563      8.12520     12.58194         0.594737      0.406070      0.359636
46   2      1.90532     10.27349     12.69264         0.744193      0.602036     -0.705627
47   2      2.08203      8.16190     14.43914        -0.329965     -0.202997      0.586584
48   2      0.09359     10.28512     14.68414        -0.988877     -0.199865      0.269785
49   2      4.25487      0.11484     35.58421        -0.269386     -0.109969     -0.140134
50   2      6.33901      2.09535     35.48391         0.325612      0.037345     -0.047166
51   2      6.27862      0.08998      1.84594         0.203123     -0.201827      0.608107
52   2      4.32171      2.20520      1.87844        -0.119274     -0.049324      0.725445
53   2      4.10191     12.46729      3.72574         0.151320      0.474456      1.044725
54   2      6.42828      2.01375      4.10584        -0.338882      0.404911     -0.128668
55   2      6.36347      0.06090      6.16754        -0.468718     -0.401866     -0.102194
56   2      4.12933      1.94827      6.16874         0.253786     -0.201315     -0.195901
57   2      4.12544      0.00364      8.44884         0.261108     -0.538460     -0.123080
58   2      6.26515      1.95926      8.26994        -0.047223      0.169621      0.154707
59   2      6.46584     12.49837     10.51724        -0.403702     -0.110534     -0.432094
60   2      3.94889      1.96393     10.60684         0.529468      0.529074     -0.280670
61   2      4.08277     12.43590     12.53224         0.040448     -0.389292      0.517117
62   2      6.13005      2.07106     12.52974        -0.178553      0.268651     -0.000441
63   2      6.19866      0.17892     14.58894        -0.030885     -0.555437      0.022116
64   2      4.02887      1.99500     14.63354        -0.171605      0.084062     -0.037213
65   2      4.26530      3.86883     35.40881        -0.056853      0.985523     -0.017652
66   2      6.26604      6.45904     35.45881        -0.058387      0.024721      0.361065
67   2      6.36849      4.34333      1.77314        -0.344464      0.064610      0.416803
68   2      4.18452      6.28723      1.94804        -0.007209      0.180127     -0.179058
69   2      4.28116      4.29921      4.01494         0.148245     -0.065040      0.029579
70   2      6.41119      6.33212      4.09254        -0.312609     -0.499691     -0.267894
71   2      6.12907      4.09883      6.21894         0.200900      0.044762     -0.231652
72   2      4.14951      6.29868      6.50324        -0.070042     -0.303766     -0.406753
73   2      4.04368      3.99838      8.41094        -0.139149      0.013766     -0.361787
74   2      6.38025      6.13138      8.31214        -0.209891      0.389467      0.108430
75   2      6.02981      4.06219     10.32634         0.544756     -0.233789      0.424188
76   2      4.26172      6.12804     10.44094        -0.190392      0.828578      0.011645
77   2      4.02826      4.21280     12.65374         0.728176     -0.647811      0.046542
78   2      6.27500      6.36159     12.61164        -0.713396     -0.256701      0.322122
79   2      6.18289      3.97323     14.73164        -0.134620      0.311093     -0.213463
80   2      3.91395      6.11090     14.70874         0.574019     -0.122969      0.022245
81   2      4.08426      8.49585     35.59651         0.225556     -0.628862      0.014112
82   2      6.31883     10.51975     35.62691         0.181081     -0.215891      0.034584
83   2      6.11990      8.40105      2.01874         0.329038     -0.153244     -0.279227
84   2      4.15513     10.43763      1.87634        -0.198896     -0.045901      0.142492
85   2      4.21830      8.30104      4.34114        -0.118950     -0.096379     -0.492758
86   2      6.20192     10.46721      4.01534        -0.058050      0.299968      0.229680
87   2      6.39122      8.33212      6.13164        -0.515062      0.383040      0.532441
88   2      4.01468     10.48616      6.21014         0.869374      0.232087      0.328238
89   2      4.24524      8.40311      8.31834         0.039013     -0.207003      0.306787
90   2      6.27545     10.40163      8.27484        -0.002119      0.532078     -0.272710
91   2      6.46517      8.28812     10.36514        -0.748796     -0.535561     -0.157560
92   2      4.47040     10.36724     10.50104        -0.486819      0.497680     -0.331884
93   2      4.28798      8.40118     12.45124         0.209498     -0.669643      0.261298
94   2      6.33706     10.51624     12.69154        -0.002459      0.050050      0.368818
95   2      6.52781      8.35544     14.74534        -0.650278      0.072494      0.019164
96   2      4.11520     10.12419     14.59714         0.253042      0.544322      0.031851
97   2      8.39187      0.16097      0.00634         0.435635     -0.486628     -0.194543
98   2     10.41968      2.27170      0.01284         0.111948     -0.353917     -0.408622
99   2     10.60598      0.17831      2.02104        -0.721402     -0.472579     -0.116783
100   2      8.29616      2.21890      1.95824         0.130575      0.112375      0.470294
101   2      8.50416     12.48925      4.08504        -0.088569      0.210534     -0.379634
102   2     10.51223      2.16922      4.04174         0.134259      0.134264      0.138293
103   2     10.40986     12.47130      6.29264         0.648986      0.378351     -0.068076
104   2      8.51804      2.14483      6.15444        -0.268477     -0.036879     -0.009523
105   2      8.41875      0.02330      8.21984         0.007658     -0.045550      0.767427
106   2     10.66294      2.18913      8.47934        -0.758519     -0.470250     -0.781578
107   2     10.49518     12.49887     10.43714        -0.577232     -0.118167     -0.143680
108   2      8.15154      2.22486     10.54654         0.749252     -0.110184     -0.418139
109   2      8.47028      0.03583     12.54424        -0.087061     -0.356051     -0.024509
110   2     10.38870      2.16683     12.50984        -0.187380     -0.046576      0.129557
111   2     10.41868     12.41665     14.67874         0.215664      0.186710     -0.021541
112   2      8.31952      1.98668     14.58844         0.118162      0.279542      0.068692
113   2      8.42837      4.29561     35.58331        -0.037723      0.183590     -0.195075
114   2     10.56728      6.48494     35.42211        -0.062445     -0.044502      0.365031
115   2     10.42750      4.24400      1.95084         0.072816      0.171403      0.241785
116   2      8.36604      6.44203      1.76964        -0.073687      0.180398     -0.075203
117   2      8.63684      4.45687      4.19274        -1.176590     -1.238844     -0.142797
118   2     10.36173      6.40937      3.91134         0.782957      0.680723      0.564874
119   2     10.59616      4.06620      6.26454         0.208574      0.195009      0.110652
120   2      8.39223      6.39791      6.20774         0.051088     -0.439077      0.001294
121   2      8.31966      4.10726      8.21574         0.024501     -0.262592      0.145160
122   2     10.21654      6.21812      8.34424         0.372531      0.139327     -0.151817
123   2     10.38940      4.25593     10.35834        -0.416740     -0.245967      0.506114
124   2      8.31450      6.15618     10.58164        -0.194623      0.103640     -0.763175
125   2      8.10919      4.27181     12.58464         0.154437     -0.635084      0.343984
126   2     10.25875      6.21562     12.66804         0.198235     -0.762991     -0.381246
127   2     10.20691      4.11187     14.63664         0.087272     -0.101368      0.236241
128   2      8.27466      6.16715     14.91124        -0.946853     -0.943014     -0.110043
129   2      8.32636      8.47990     35.19761         0.231552      0.058730      0.778004
130   2     10.58844     10.64950     35.52701        -0.695009     -0.705346      0.368837
131   2     10.50692      8.37114      1.87734        -0.282038      0.299169     -0.357782
132   2      8.40544     10.47102      2.02854         0.199883      0.001303     -0.427341
133   2      8.33206      8.47246      4.03774         0.357421     -0.036510     -0.251806
134   2     10.64439     10.39742      4.21204        -1.038392      0.203270     -0.467125
135   2     10.47102      8.34218      6.32964         0.273192     -0.143493     -0.448875
136   2      8.38194     10.50291      6.09924        -0.197740     -0.227348      0.168351
137   2      8.42698      8.53206      8.22724        -0.293845     -0.404720      0.401700
138   2     10.54111     10.37616      8.36794        -0.086491      0.503203      0.452040
139   2     10.44214      8.18019     10.56064        -0.836067      0.850816     -0.392339
140   2      8.31216     10.27389     10.54944         0.759458      0.870866     -0.286300
141   2      8.31244      8.30351     12.59924        -0.205244     -0.007349     -0.088796
142   2     10.29154     10.23047     12.77774         0.942410      0.367292     -0.590885
143   2     10.15006      7.99046     14.75854         0.676550      1.386918      0.517196
144   2      8.49824     10.35521     14.80684        -0.536626      0.258215      0.231618
