ITEM: TIMESTEP
0
ITEM: NUMBER OF ATOMS
144
ITEM: BOX BOUNDS pp pp pp
0.0 12.5220000000000002 
0.0 12.5220000000000002
0.0 35.7286733700000028
ITEM: ATOMS id type x y z fx fy fz
1   2      0.00003      0.00003      0.04684        -0.000105     -0.000105     -0.051397
2   2      2.08700      2.08700      0.04684        -0.000541     -0.000541     -0.051360
3   2      2.08700      0.00003      2.09124        -0.001176     -0.000179     -0.007152
4   2      0.00003      2.08700      2.09124        -0.000179     -0.001176     -0.007152
5   2      0.00003      0.00003      4.16564        -0.000171     -0.000171      0.011589
6   2      2.08700      2.08700      4.16564        -0.000843     -0.000843      0.011384
7   2      2.08700      0.00003      6.24324        -0.001134     -0.000168      0.015677
8   2      0.00003      2.08700      6.24324        -0.000168     -0.001133      0.015677
9   2      0.00003      0.00003      8.32654        -0.000170     -0.000169     -0.015028
10   2      2.08700      2.08700      8.32654        -0.000783     -0.000783     -0.015668
11   2      2.08700      0.00003     10.40404        -0.000912     -0.000170     -0.010431
12   2      0.00003      2.08700     10.40404        -0.000170     -0.000911     -0.010431
13   2      0.00003      0.00003     12.47844        -0.000179     -0.000179      0.007974
14   2      2.08700      2.08700     12.47844        -0.000549     -0.000549      0.006848
15   2      2.08700      0.00003     14.52284        -0.000546     -0.000107      0.050343
16   2      0.00003      2.08700     14.52284        -0.000107     -0.000546      0.050343
17   2      0.00003      4.17400      0.04684        -0.000107      0.000535     -0.051255
18   2      2.08700      6.26100      0.04684        -0.000449     -0.000003     -0.051268
19   2      2.08700      4.17400      2.09124        -0.000804      0.000950     -0.006970
20   2      0.00003      6.26100      2.09124        -0.000181      0.000003     -0.007431
21   2      0.00003      4.17400      4.16564        -0.000170      0.001373      0.011465
22   2      2.08700      6.26100      4.16564        -0.001237      0.000004      0.011468
23   2      2.08700      4.17400      6.24324        -0.000791      0.000927      0.015461
24   2      0.00003      6.26100      6.24324        -0.000169      0.000002      0.016041
25   2      0.00003      4.17400      8.32654        -0.000168      0.001247     -0.015436
26   2      2.08700      6.26100      8.32654        -0.001111      0.000002     -0.015436
27   2      2.08700      4.17400     10.40404        -0.000696      0.000833     -0.010684
28   2      0.00003      6.26100     10.40404        -0.000171      0.000004     -0.009680
29   2      0.00003      4.17400     12.47844        -0.000179      0.000754      0.006994
30   2      2.08700      6.26100     12.47844        -0.000608      0.000003      0.006998
31   2      2.08700      4.17400     14.52284        -0.000555      0.000640      0.050376
32   2      0.00003      6.26100     14.52284        -0.000106     -0.000003      0.049495
33   2      0.00003      8.34800      0.04684        -0.000107     -0.000490     -0.051212
34   2      2.08700     10.43502      0.04684        -0.000541      0.000606     -0.051236
35   2      2.08700      8.34800      2.09124        -0.000804     -0.000866     -0.006975
36   2      0.00003     10.43502      2.09124        -0.000180      0.001269     -0.007151
37   2      0.00003      8.34800      4.16564        -0.000170     -0.001299      0.011470
38   2      2.08700     10.43502      4.16564        -0.000843      0.000935      0.011386
39   2      2.08700      8.34800      6.24324        -0.000791     -0.000853      0.015457
40   2      0.00003     10.43502      6.24324        -0.000168      0.001225      0.015670
41   2      0.00003      8.34800      8.32654        -0.000168     -0.001173     -0.015433
42   2      2.08700     10.43502      8.32654        -0.000783      0.000874     -0.015660
43   2      2.08700      8.34800     10.40404        -0.000697     -0.000759     -0.010688
44   2      0.00003     10.43502     10.40404        -0.000170      0.001004     -0.010432
45   2      0.00003      8.34800     12.47844        -0.000179     -0.000670      0.006999
46   2      2.08700     10.43502     12.47844        -0.000549      0.000641      0.006847
47   2      2.08700      8.34800     14.52284        -0.000555     -0.000595      0.050333
48   2      0.00003     10.43502     14.52284        -0.000107      0.000611      0.050219
49   2      4.17400      0.00003      0.04684         0.000535     -0.000107     -0.051255
50   2      6.26100      2.08700      0.04684        -0.000003     -0.000449     -0.051268
51   2      6.26100      0.00003      2.09124         0.000003     -0.000181     -0.007431
52   2      4.17400      2.08700      2.09124         0.000950     -0.000804     -0.006970
53   2      4.17400      0.00003      4.16564         0.001373     -0.000170      0.011465
54   2      6.26100      2.08700      4.16564         0.000004     -0.001236      0.011468
55   2      6.26100      0.00003      6.24324         0.000003     -0.000169      0.016041
56   2      4.17400      2.08700      6.24324         0.000927     -0.000791      0.015460
57   2      4.17400      0.00003      8.32654         0.001247     -0.000168     -0.015436
58   2      6.26100      2.08700      8.32654         0.000003     -0.001111     -0.015436
59   2      6.26100      0.00003     10.40404         0.000004     -0.000171     -0.009680
60   2      4.17400      2.08700     10.40404         0.000833     -0.000696     -0.010684
61   2      4.17400      0.00003     12.47844         0.000754     -0.000179      0.006994
62   2      6.26100      2.08700     12.47844         0.000003     -0.000608      0.006998
63   2      6.26100      0.00003     14.52284        -0.000003     -0.000106      0.049495
64   2      4.17400      2.08700     14.52284         0.000640     -0.000555      0.050375
65   2      4.17400      4.17400      0.04684         0.000627      0.000627     -0.051224
66   2      6.26100      6.26100      0.04684        -0.000003     -0.000003     -0.051288
67   2      6.26100      4.17400      2.09124         0.000003      0.001322     -0.007150
68   2      4.17400      6.26100      2.09124         0.001322      0.000003     -0.007150
69   2      4.17400      4.17400      4.16564         0.000979      0.000979      0.011384
70   2      6.26100      6.26100      4.16564         0.000004      0.000004      0.011594
71   2      6.26100      4.17400      6.24324         0.000003      0.001269      0.015670
72   2      4.17400      6.26100      6.24324         0.001269      0.000002      0.015670
73   2      4.17400      4.17400      8.32654         0.000918      0.000918     -0.015660
74   2      6.26100      6.26100      8.32654         0.000003      0.000003     -0.015021
75   2      6.26100      4.17400     10.40404         0.000004      0.001048     -0.010433
76   2      4.17400      6.26100     10.40404         0.001048      0.000004     -0.010433
77   2      4.17400      4.17400     12.47844         0.000695      0.000695      0.006843
78   2      6.26100      6.26100     12.47844         0.000003      0.000003      0.007977
79   2      6.26100      4.17400     14.52284        -0.000003      0.000632      0.050221
80   2      4.17400      6.26100     14.52284         0.000632     -0.000003      0.050221
81   2      4.17400      8.34800      0.04684         0.000627     -0.000582     -0.051181
82   2      6.26100     10.43502      0.04684        -0.000003      0.000513     -0.051145
83   2      6.26100      8.34800      2.09124         0.000003     -0.001238     -0.007156
84   2      4.17400     10.43502      2.09124         0.000951      0.000897     -0.006969
85   2      4.17400      8.34800      4.16564         0.000979     -0.000906      0.011388
86   2      6.26100     10.43502      4.16564         0.000004      0.001329      0.011469
87   2      6.26100      8.34800      6.24324         0.000003     -0.001195      0.015667
88   2      4.17400     10.43502      6.24324         0.000927      0.000883      0.015453
89   2      4.17400      8.34800      8.32654         0.000918     -0.000844     -0.015657
90   2      6.26100     10.43502      8.32654         0.000003      0.001203     -0.015428
91   2      6.26100      8.34800     10.40404         0.000004     -0.000975     -0.010437
92   2      4.17400     10.43502     10.40404         0.000833      0.000789     -0.010686
93   2      4.17400      8.34800     12.47844         0.000695     -0.000611      0.006848
94   2      6.26100     10.43502     12.47844         0.000003      0.000701      0.006997
95   2      6.26100      8.34800     14.52284        -0.000003     -0.000587      0.050178
96   2      4.17400     10.43502     14.52284         0.000640      0.000620      0.050252
97   2      8.34800      0.00003      0.04684        -0.000490     -0.000107     -0.051212
98   2     10.43502      2.08700      0.04684         0.000606     -0.000541     -0.051235
99   2     10.43502      0.00003      2.09124         0.001268     -0.000179     -0.007151
100   2      8.34800      2.08700      2.09124        -0.000866     -0.000804     -0.006975
101   2      8.34800      0.00003      4.16564        -0.001299     -0.000170      0.011470
102   2     10.43502      2.08700      4.16564         0.000935     -0.000843      0.011386
103   2     10.43502      0.00003      6.24324         0.001225     -0.000168      0.015670
104   2      8.34800      2.08700      6.24324        -0.000852     -0.000791      0.015458
105   2      8.34800      0.00003      8.32654        -0.001172     -0.000168     -0.015433
106   2     10.43502      2.08700      8.32654         0.000874     -0.000783     -0.015660
107   2     10.43502      0.00003     10.40404         0.001004     -0.000169     -0.010432
108   2      8.34800      2.08700     10.40404        -0.000759     -0.000696     -0.010688
109   2      8.34800      0.00003     12.47844        -0.000670     -0.000179      0.006999
110   2     10.43502      2.08700     12.47844         0.000642     -0.000549      0.006847
111   2     10.43502      0.00003     14.52284         0.000611     -0.000107      0.050219
112   2      8.34800      2.08700     14.52284        -0.000595     -0.000555      0.050333
113   2      8.34800      4.17400      0.04684        -0.000581      0.000627     -0.051182
114   2     10.43502      6.26100      0.04684         0.000514     -0.000003     -0.051145
115   2     10.43502      4.17400      2.09124         0.000897      0.000951     -0.006968
116   2      8.34800      6.26100      2.09124        -0.001238      0.000003     -0.007155
117   2      8.34800      4.17400      4.16564        -0.000905      0.000979      0.011388
118   2     10.43502      6.26100      4.16564         0.001329      0.000004      0.011470
119   2     10.43502      4.17400      6.24324         0.000883      0.000927      0.015453
120   2      8.34800      6.26100      6.24324        -0.001195      0.000002      0.015667
121   2      8.34800      4.17400      8.32654        -0.000844      0.000918     -0.015657
122   2     10.43502      6.26100      8.32654         0.001203      0.000003     -0.015428
123   2     10.43502      4.17400     10.40404         0.000789      0.000833     -0.010685
124   2      8.34800      6.26100     10.40404        -0.000974      0.000004     -0.010437
125   2      8.34800      4.17400     12.47844        -0.000611      0.000695      0.006848
126   2     10.43502      6.26100     12.47844         0.000701      0.000003      0.006997
127   2     10.43502      4.17400     14.52284         0.000620      0.000640      0.050252
128   2      8.34800      6.26100     14.52284        -0.000586     -0.000003      0.050178
129   2      8.34800      8.34800      0.04684        -0.000581     -0.000582     -0.051139
130   2     10.43502     10.43502      0.04684         0.000606      0.000606     -0.051112
131   2     10.43502      8.34800      2.09124         0.000897     -0.000867     -0.006974
132   2      8.34800     10.43502      2.09124        -0.000866      0.000897     -0.006974
133   2      8.34800      8.34800      4.16564        -0.000905     -0.000906      0.011393
134   2     10.43502     10.43502      4.16564         0.000936      0.000935      0.011388
135   2     10.43502      8.34800      6.24324         0.000883     -0.000853      0.015450
136   2      8.34800     10.43502      6.24324        -0.000853      0.000882      0.015450
137   2      8.34800      8.34800      8.32654        -0.000844     -0.000844     -0.015654
138   2     10.43502     10.43502      8.32654         0.000874      0.000874     -0.015653
139   2     10.43502      8.34800     10.40404         0.000789     -0.000760     -0.010690
140   2      8.34800     10.43502     10.40404        -0.000759      0.000789     -0.010690
141   2      8.34800      8.34800     12.47844        -0.000611     -0.000611      0.006853
142   2     10.43502     10.43502     12.47844         0.000642      0.000642      0.006846
143   2     10.43502      8.34800     14.52284         0.000620     -0.000595      0.050209
144   2      8.34800     10.43502     14.52284        -0.000595      0.000620      0.050209
