ITEM: TIMESTEP
0
ITEM: NUMBER OF ATOMS
144
ITEM: BOX BOUNDS pp pp pp
0.0 12.5220000000000002 
0.0 12.5220000000000002
0.0 35.7286733700000028
ITEM: ATOMS id type x y z fx fy fz
1   2      6.31725      9.23143     34.89984        -0.407748      0.247758      0.367024
2   2      4.59932      0.11020     35.16494        -0.335141     -0.879453     -0.557628
3   2      1.88740     12.35759     35.48134         0.064777      0.752157      0.379064
4   2      3.50837      2.42004      0.04444        -0.579517     -0.442577     -0.444224
5   2      0.14214      1.54270      5.15614        -0.416097     -0.482109     -0.836938
6   2      2.44379      4.28434      4.47624         0.226947      1.217386     -1.375606
7   2      2.78256      0.38395      4.60164         0.290826     -0.689784     -0.682554
8   2      0.89416      3.65337      6.58954        -1.084264      0.942199      1.289662
9   2      2.30674      0.34128     10.87134        -1.797300     -0.567371     -0.016487
10   2      1.69005      0.74318      7.50694        -0.623093      0.092910      0.379769
11   2      1.73435      0.02320     14.29744        -0.767587      0.802454      0.252920
12   2      0.18037      2.35958     12.70154        -2.452473     -0.568489      0.114678
13   2     11.63906     11.98850     12.83704         0.556527      1.489851      1.988105
14   2      0.56132      4.18520     14.83584        -0.130881      0.113793      0.123559
15   2      1.46307      1.53711     17.15924         0.053401     -0.343829     -0.446883
16   2     11.59935      1.03217     15.54854         0.232245     -0.011207     -0.437410
17   2      1.50755      6.75673     29.40144         0.019703     -0.201667      0.183132
18   2      2.58006      7.40833     33.27724        -0.602974     -0.156061     -0.380244
19   2      1.54469      5.18418     34.96384         1.324020     -1.106535      2.374419
20   2     11.81323      7.24543      1.91074         0.217285     -0.182247     -0.441721
21   2      0.85053      4.56039      2.27164        -0.196661      0.321048     -0.182832
22   2      3.22982      7.71727      0.13824         0.527014     -0.283236      0.862593
23   2      0.36691      6.13090      4.61724        -0.199452      0.373972     -0.513493
24   2      0.79536      8.41908      6.83504        -0.059786      0.164310     -0.767643
25   2     11.25884      6.44033      6.82974        -0.551527     -0.165783     -0.574238
26   2      0.93756      5.85407      8.43734        -0.095802     -0.106477      0.217517
27   2      0.64651      4.64159     10.97214        -0.788721      0.362744      0.757399
28   2     10.91331      6.62266     10.72024         0.160316     -0.371404      0.135404
29   2     10.08408      3.34828     15.69554        -0.326959     -0.229904     -0.255677
30   2     11.15596      6.73854     15.14934         0.058655     -0.202376      0.559634
31   2     12.05759      3.54264     17.60194         0.138266      0.389348     -0.414938
32   2     11.15847      6.61319     18.34464         1.501546     -1.573588      0.493191
33   2      0.18050      9.14456     33.51204         0.876657     -0.424826      0.461076
34   2      2.81477     10.06342     34.37124         0.510184     -0.230700     -0.713148
35   2      1.08138      9.56963      0.61364        -1.121823     -1.017200     -0.285405
36   2     11.96403     11.88011      0.79984        -0.161242     -0.588205      0.464202
37   2      0.82254      8.96609      3.52314        -0.246647     -1.051228      0.850745
38   2      1.89973     11.12628      2.51444         1.031450      1.702133      0.855628
39   2      3.39322      8.12502      5.42364        -0.820637     -0.151764     -0.007974
40   2      0.80749     11.10853      5.49934         0.216227     -0.571521     -0.576851
41   2      2.10595      8.24487      9.24864        -3.239890      0.624070      2.152848
42   2      2.56486     10.61751      7.58964         0.343823     -0.690764      0.120724
43   2      3.70890     11.08577     13.23534         0.534464     -0.323136     -0.245325
44   2     11.41476     10.21363     11.07354         0.714982     -0.598112     -1.315440
45   2      1.23929     10.92444     17.87544         0.108767     -0.212504     -0.742079
46   2      2.51875      9.17163     15.76164        -0.045411      0.798112      0.360793
47   2      0.23238      8.30918     16.84464        -0.053235      0.383433      0.105418
48   2     11.05308      9.48522     18.85644         0.466453      0.864862      0.585330
49   2      6.75234      0.01649     33.72864        -0.318849      0.153218     -0.603326
50   2      9.10683     12.04595     34.53674         1.410999     -0.746560      0.771718
51   2      6.96683      0.41151      0.91784        -0.219790      0.666562     -0.492746
52   2      6.45771      3.95091     35.58431         0.394109     -0.077059      0.177469
53   2      4.32051      0.53717      2.13024        -0.076586      0.156966      1.127268
54   2      5.43787      3.26068      2.77164         0.008771     -0.766243     -0.034540
55   2      6.29714      0.83874      6.71624         0.689086      0.261666     -0.843151
56   2      3.29063      2.53242      6.11954         1.840087     -1.115135      1.208263
57   2      4.25828      0.18981      8.25824        -0.634289      0.291069      0.649555
58   2      5.26566      2.82854      8.32774         0.013195      0.697882      0.310053
59   2      6.89990     10.31911     11.21094        -1.190644     -0.572168      0.227130
60   2      4.68348      1.07869     10.91884         2.355421      0.829409      0.248786
61   2      5.36856     10.03695     15.76854        -0.782889     -2.202473      0.206039
62   2      7.66507      1.66676     11.74724        -2.002840      1.222201     -1.077643
63   2      3.83558     12.35619     17.05294        -0.893778     -0.346992     -0.339212
64   2      2.04069      4.58781     17.53574         0.313362     -0.598993     -0.700888
65   2      0.12634      6.06678     33.14814        -2.251964      0.941684     -1.584526
66   2      6.65385      5.20383     32.41804        -0.255158     -1.806765      0.202164
67   2      7.28113      5.24644      2.11864        -0.807496     -0.002031     -1.598264
68   2      3.89633      4.66577     33.69674         0.541393      0.181913     -0.373290
69   2      4.09674      4.76260      0.88414        -0.729592      2.069096      0.549496
70   2      6.93671      7.31901      3.83054         0.013042     -0.799260     -0.070938
71   2      4.54366      5.81601      3.54134        -0.154660     -0.053800      0.005943
72   2      3.46453      5.11422      7.18464         0.260356      0.199121      0.044849
73   2      2.24383      3.33159      9.35734         0.743023     -0.707446     -0.619458
74   2      6.36063      5.67818      8.09204        -0.295182     -0.464113      0.084323
75   2      5.85959      3.74718     11.08664        -0.558147      0.019808     -0.144625
76   2      3.89144      5.68968      9.90184         0.125816     -0.168289      0.180288
77   2      2.64196      2.64728     12.62704         2.653704      0.568140      0.076962
78   2      5.03666      4.17752     13.88304        -0.130073     -0.102171      0.039973
79   2      3.67664      1.98723     15.37004         0.147787      0.563248     -0.391419
80   2      2.87814      5.68049     12.55874        -0.040064     -0.466228      0.001111
81   2      5.24850      7.40830     33.02794        -1.778269      0.455702      0.186556
82   2      9.11381      9.16557     35.19464        -0.716549      2.087842      0.117690
83   2     10.02562      6.81515     34.96854         1.579953     -1.720096      0.849394
84   2      4.38020     10.33495      1.14944        -0.253120      0.270631     -0.904596
85   2      4.68214      8.52120      3.00194        -0.432977     -0.061153     -0.038161
86   2      7.09874     10.31530      1.81874         0.189035     -0.764519      0.028978
87   2      6.04487      8.61001      6.14584         0.626959     -1.065558      0.553173
88   2      4.85308     10.63466      5.02934        -0.510362      1.350345     -0.561203
89   2      4.22699      7.95178      8.18744         2.511849     -0.748360     -2.367184
90   2      5.64561     10.39371      8.21364         0.329548      0.097827      0.172789
91   2      6.33981      7.96567      9.75214         0.207666     -0.403487      1.390428
92   2      3.98738     10.11837     10.57744        -0.081900      0.156530     -0.021308
93   2      5.60530      6.53523     12.06744        -0.086542     -0.065525      0.280565
94   2      6.83662      8.70825     13.59974        -0.212400     -0.353596     -0.186425
95   2      6.09593      7.06725     16.22414        -0.825683     -0.105690     -0.070325
96   2      3.36076      8.24658     13.42444         0.671518     -0.022861     -0.452841
97   2      8.46538      2.56257      2.32274        -0.456176      0.137619     -0.390190
98   2      2.11515      5.13907     31.35254         0.194313      0.636444      0.738701
99   2      0.80600      2.46403      0.38464         0.030393     -0.574658     -0.001229
100   2     10.55856      1.49997      0.15024        -0.447161      0.562067     -0.108174
101   2      6.90786     12.51261      3.75864        -0.331174     -0.002027      0.693194
102   2     11.45366      2.28926      2.60734        -0.047316      0.348038      0.612457
103   2     11.54100     12.40613      7.06434        -0.400054      0.202919      0.808222
104   2      9.39837      1.53646      4.69824        -0.045353      0.218558      0.326107
105   2      7.25499     12.43650      9.37594        -0.366668      0.296773     -0.283223
106   2     10.83971      4.14432      8.39464        -0.074449     -0.036051      0.114792
107   2     12.11303      0.39002     10.33164        -0.065648      0.078403     -0.852016
108   2     10.49859      3.31284     11.07634        -0.200407      0.040090     -0.985738
109   2      8.92967     11.96022     11.57724         1.622984     -0.927183     -0.020548
110   2      9.80641      1.57495     13.16274         1.181481      0.308605      1.572102
111   2      8.61638     11.01769     18.36244         2.648997     -0.459539      0.297038
112   2      6.27926     11.62843     17.85544        -1.548708      0.884205     -0.783126
113   2      5.72760      2.51018     33.46624        -0.308062      0.187384     -0.224533
114   2      9.72350      5.56081     32.65484         0.066086     -0.158102     -0.160174
115   2     11.38387      4.38075      0.23594        -0.174598      0.627757     -0.123308
116   2      8.78083      7.69481      1.71204        -0.337988      0.288487     -0.952554
117   2      8.67337      4.79873      4.19884        -0.141114     -0.983419      1.135810
118   2      9.96812      7.09244      3.94014         0.951427      0.598869      1.612277
119   2     10.92354      3.91997      5.27724         0.595337     -0.296416      0.481641
120   2      8.22429      6.78633      6.37214         0.450732     -0.266718     -0.052154
121   2      8.25834      3.62637      6.71874         0.309758      0.217622     -1.272086
122   2     10.95763      8.48795      8.59144         0.711799     -0.167663      1.035249
123   2     10.64850      4.77969     13.34234         1.162955     -0.796874      0.222723
124   2      8.05825      3.43598      9.24974         0.022718     -0.083428      1.504330
125   2      5.92081     12.27086     14.77754         0.253561      1.852934     -0.458734
126   2      7.95533      4.28396     12.75864        -0.203180     -0.069701      0.236808
127   2      8.75270      0.61789     16.17914         0.159628      0.014572     -0.142898
128   2      4.89617      4.36230     16.89474        -0.664015      0.320458     -0.971694
129   2      7.72249      7.27255     33.51904         2.048315      0.921813      0.660188
130   2     10.26467      9.69878     32.80334        -0.441602      0.334147      0.263285
131   2     10.79228      9.89330      2.60674        -0.032730     -1.194939     -1.369792
132   2      9.23387     12.23747      2.16984         0.958949     -0.073696     -0.042745
133   2      8.11334      9.55712      4.58464         0.431942     -0.273176     -2.008491
134   2     10.63065     11.54491      4.54824         0.024140      1.350987      0.790799
135   2     10.30979      9.40744      6.16374         0.482131     -0.450424      0.196874
136   2      8.10371     11.40092      6.30844         0.275255      1.408592      1.370939
137   2      8.24320      8.96690      8.23294         0.016917      0.280795     -0.998528
138   2      9.88611     11.18484      8.81834        -0.139022      0.276921      0.202112
139   2      9.15904      6.90217     13.01314         0.034880      2.094552     -2.163721
140   2      9.21716      8.88709     10.90794        -0.973261     -1.080407      0.267541
141   2      8.16123      5.93294     15.09604        -0.054788     -1.034422      1.431336
142   2     11.50069     11.18464     20.97444        -0.134074     -0.566591     -1.085601
143   2      9.61130      8.09797     17.07104        -1.992806      0.937011     -1.142931
144   2      6.92162      8.93777     17.90024         0.489109     -0.083962     -0.415329
