ITEM: TIMESTEP
0
ITEM: NUMBER OF ATOMS
144
ITEM: BOX BOUNDS pp pp pp
0.0 12.5220000000000002 
0.0 12.5220000000000002
0.0 35.7286733700000028
ITEM: ATOMS id type x y z fx fy fz
1   2      1.28803     11.47251     35.00404         0.056918      1.520059      0.021912
2   2      1.72682      1.85177     34.86794         0.212916     -0.091175      0.492242
3   2      2.08989      0.01347      1.74224         0.280512     -0.306282      0.112075
4   2      0.18894      1.99567      1.45854        -0.679746      0.301169      0.198511
5   2      0.08888     12.34087      4.08564        -0.722654      1.145459     -1.162079
6   2      2.25158      1.72165      4.03954        -0.024004      0.462723     -0.014181
7   2      1.78235      0.01277      6.33364         0.647024     -0.201491     -0.667678
8   2      0.00515      2.38859      6.23824        -0.172527     -1.000978     -0.219240
9   2     12.37775      0.23404      8.30014         0.458946      1.069733      0.118422
10   2      2.06846      1.77259      8.40274         1.137698      0.930558      0.013087
11   2      2.07921     12.31197     10.70764        -0.229694     -0.380669     -0.442592
12   2      0.42047      2.14698     10.61534        -1.617580     -1.176333     -0.096756
13   2      0.23474      0.06240     12.75714         0.340698      0.279306      0.343163
14   2      2.76007      2.10952     12.10644        -1.287349      1.817864      0.834419
15   2      2.44464     12.16447     15.43874        -0.533254      0.332337     -0.507779
16   2      0.76774      2.28514     14.50504         0.167570     -0.140788      0.039716
17   2      0.27851      4.49589     35.33644        -1.655887     -1.324609      0.371435
18   2      2.23429      6.07036     35.27154         1.667245      1.562218      0.172304
19   2      2.09495      4.13512      1.70614         0.195174     -0.067849      0.436822
20   2     12.22223      6.38004      2.02414         0.482816     -0.836835      0.065886
21   2      0.21770      3.94395      3.98854        -0.252224      0.167394     -0.730636
22   2      1.96550      6.01518      3.92374         0.262933      0.550914      0.242891
23   2      2.25192      4.06790      6.09394         0.472577     -0.182761      0.182545
24   2      0.11785      5.86452      6.46464         0.448290      1.259309     -0.999436
25   2     12.42956      4.08693      8.36994         0.096715     -0.648737      1.081694
26   2      2.39892      6.41536      8.26834        -1.808978     -1.107048      0.551784
27   2      2.07183      4.16952     10.28204         1.240135      1.058802     -0.236365
28   2     12.52194      6.13915     10.48384         0.903946      1.673056     -0.481418
29   2      0.07012      4.13527     12.48634        -0.131863     -0.579482      0.947993
30   2      1.55189      6.35899     12.90284         0.581075      1.099909     -1.054811
31   2      2.21362      4.92641     15.11364         0.710224     -0.692001      0.443772
32   2     12.28831      6.01703     14.98924        -0.532195     -0.031258      0.008353
33   2     12.09749      8.07891     35.62004        -0.233813      0.137255     -0.580936
34   2      1.93272      9.00234     34.99444         0.123526     -0.713335     -0.247830
35   2      2.09491      8.34960      2.07394        -1.276063     -0.579878     -0.105962
36   2      0.19469     10.33305      1.65024         0.284188      0.498043     -0.035647
37   2      0.00752      8.48414      4.05684         0.321611     -0.569390     -0.224743
38   2      2.15494     10.56237      4.06434        -0.117413     -0.078843      0.365516
39   2      1.87832      8.53981      6.17184        -0.020092     -0.565187     -0.264363
40   2     12.08516     10.45648      5.87154         0.023566     -0.249799      1.229988
41   2      0.18062      8.37917      8.49434        -0.815019     -0.971137     -0.066609
42   2      1.90677     10.43101      8.16314         0.126680      0.913290      0.592772
43   2      2.00520      8.63137     10.59044         0.108036     -0.623746      0.265617
44   2     12.18162     10.13010     10.96474         0.728989      0.749461     -0.064601
45   2     12.02961      8.61877     13.15774         0.039499     -0.660304      0.467144
46   2      2.31788     10.19819     12.97364        -0.546808      0.708822     -0.183829
47   2      1.70333      8.29182     14.92594         0.277648     -0.041444      0.172467
48   2     12.33203     10.78867     15.15874         0.742864      0.378028     -0.440793
49   2      3.98488      0.06461     34.98974        -0.026065      0.153887      0.620907
50   2      6.27724      1.68391     34.86794        -0.146903      0.054783      0.882483
51   2      5.94714     12.06601      1.80184        -0.554688      1.899592      0.689179
52   2      4.19462      1.95070      1.88684         0.179983     -0.496499      0.577771
53   2      4.36294     12.32270      4.27054         0.052728      0.229086     -0.426995
54   2      6.45991      2.21567      3.62504        -0.859923      0.385678     -0.108893
55   2      6.42252     12.43370      6.28824        -0.218540     -0.203992      0.301486
56   2      4.33312      1.95329      6.12204        -0.059587      0.291656      0.341800
57   2      4.19102     12.16608      8.26784        -0.253793      0.874957      0.216168
58   2      6.50564      2.24431      8.06024        -0.489047     -0.399112      0.068841
59   2      6.52674     12.44093     10.32954         1.595153     -1.190894     -0.142088
60   2      4.59775      1.47693     10.37234        -1.015323      1.542766     -0.784376
61   2      4.04567      0.14431     13.11744        -0.345667     -1.298438     -1.171109
62   2      5.80066      2.38486     13.15624        -0.296775     -0.179157      0.271457
63   2      5.60314     12.31698     15.06254         0.313131      0.039773      1.186042
64   2      3.59117      2.29695     15.06684        -0.054433      0.269971     -0.245943
65   2      4.03086      3.54747     35.49654         0.373657      0.529556     -0.618788
66   2      6.03015      5.99816     35.27894        -0.135225      0.396103     -0.370116
67   2      6.17303      4.90372      1.98244         0.184710     -1.969116     -0.379143
68   2      3.97951      6.48145      1.90964        -0.037408     -0.523577     -0.287411
69   2      4.32763      4.06715      4.06094        -0.191546     -0.098995     -0.087480
70   2      6.07078      6.47173      4.07094        -0.028515      0.592569      0.673375
71   2      6.29019      4.53827      6.36524        -0.726757     -0.989645     -0.797570
72   2      4.08787      6.34949      6.15244        -0.235724     -0.355071     -0.390654
73   2      4.23070      4.23801      8.29554        -0.833485     -1.467099      0.111867
74   2      5.92325      6.22230      8.64754         1.366030      1.063278     -0.394317
75   2      6.18995      3.85356     10.75384        -0.582056      0.677094     -0.339678
76   2      4.19062      6.25837     10.58174        -0.870156      0.003823      0.992576
77   2      3.87217      4.69044     12.87524         0.478043     -0.262046     -0.083118
78   2      6.42825      6.36724     13.10374         0.193418     -0.107441     -0.317807
79   2      5.99150      4.34940     15.26084        -0.067496     -0.245904     -0.699649
80   2      4.60253      6.76956     15.11584        -0.403501      0.376023      0.069226
81   2      4.39814      8.27087     35.22084         0.958226     -0.483977      0.235134
82   2      6.16794     10.46581     35.48414        -0.955360     -0.191202     -1.136076
83   2      5.96841      8.53669      1.93924         1.247443     -0.989934      0.123746
84   2      3.97558     10.20029      2.01754        -0.437847      1.491946     -0.468131
85   2      3.99581      8.37968      4.25514         0.132446      0.051267     -0.156869
86   2      6.64891     10.49569      4.19334        -1.416964     -1.503803      1.034322
87   2      6.22162      8.16428      6.33874         0.655479      0.266023      0.034426
88   2      4.44231     10.30537      6.30764        -0.633129      0.075738     -1.068558
89   2      3.97035      8.46222      8.35964         1.043551      0.771601      0.498951
90   2      6.27505     10.26938      8.35404         0.839487     -0.130662      0.583662
91   2      6.48511      8.37518     10.71224        -0.592578     -0.348552      0.073831
92   2      4.10716     10.50782     10.59574         0.655282     -0.295386      0.215758
93   2      4.22827      8.22325     12.62854         0.170879     -0.012369      0.077655
94   2      6.32405     10.42229     12.49974        -0.049776      0.485275      0.678688
95   2      7.19611      8.09902     15.34384         0.222681     -0.054147     -0.661773
96   2      4.04853      9.98175     15.22664         0.209647     -0.749607     -0.365314
97   2      8.26167     12.26391      0.04436        -0.132773      1.439903     -1.274553
98   2     10.28261      1.73124     35.28774        -0.160753      0.565375      0.441611
99   2     10.79860     12.30295      1.40734         0.211380      0.156728      0.674171
100   2      8.44868      2.00028      1.76304         0.382949      0.499193     -0.362702
101   2      8.15510     12.51478      3.68204         0.820719      1.714135     -0.166872
102   2     10.72250      2.09073      3.76514        -0.381990     -0.391406     -0.046535
103   2     10.28973      0.20598      6.17554         1.643479     -0.376558     -1.624020
104   2      8.22012      1.84862      5.66934         0.389795      1.504676      0.519911
105   2      8.65675     12.33923      8.13144        -1.554864     -0.438122      1.139928
106   2     10.14163      2.25754      8.08764         0.300994      0.631844     -0.079827
107   2     10.33576      0.44785     10.28764         0.707159     -1.144967     -0.052208
108   2      8.33686      2.25484     10.18954        -0.291924      0.213411      0.609415
109   2      7.98057      0.53058     12.79264        -0.245355      0.276138     -1.135863
110   2     10.38078      2.11707     12.34694         0.264083      0.458910      0.967431
111   2     10.35721      0.35823     14.95944         1.357110      0.660081      0.145905
112   2      8.41999      2.29137     14.93684        -1.067361     -0.272213      0.396506
113   2      8.16357      4.29416     35.71411         0.138436     -0.265908      0.058067
114   2      9.85635      6.72023     35.19434         0.097697     -0.962191      0.330033
115   2     10.52707      4.06768      1.51744         0.233353     -0.002673      0.006331
116   2      8.35375      6.63197      1.87624         0.325691     -0.300830     -0.617104
117   2      8.23952      4.55224      4.03974        -0.166125     -1.828230     -1.393784
118   2     10.51614      6.13560      4.20064         0.555300      0.176038     -1.335485
119   2     10.33024      4.20961      6.05934        -0.200026     -1.003206      0.252321
120   2      8.32565      6.24116      5.99254         0.375229      1.615745      1.675494
121   2      8.15537      4.53560      8.38774         0.456324     -0.301358      0.553101
122   2     10.36112      6.16571      8.24074         0.252613      0.382031      0.631851
123   2     10.59094      4.37905     10.57744        -1.536946     -1.477724     -1.038674
124   2      8.33075      6.19288     10.94004        -0.662949     -0.449732     -0.529925
125   2      8.05869      3.93745     12.85114         0.428684      0.825392     -0.356597
126   2     10.46430      6.09199     12.64164         0.662870      0.122296      0.404209
127   2     10.75228      3.49110     15.09034         0.812937      0.608911     -0.472746
128   2      9.63061      6.48730     15.13944        -0.588403      0.379381      0.462929
129   2      7.89445      8.47436     35.28644        -0.135257     -0.142322      0.207832
130   2     10.17703     10.40484     35.18344         0.168017     -0.821723      0.421339
131   2     10.58633      8.69261      2.09214        -1.101686     -0.542192     -0.314993
132   2      8.20709     10.42480      1.90354         0.548780     -1.679492     -0.376057
133   2      8.37264      8.25309      4.00104         0.024356      0.489023      0.530388
134   2     10.02131     10.60307      3.94714         1.119465      0.281173      0.510664
135   2     10.69191      7.97915      6.16824         0.013555      0.681820      0.628651
136   2      8.83818     10.10584      6.42364        -0.476991     -0.340652      0.279488
137   2      8.14260      8.00438      8.54054         0.245235      0.135961     -0.768713
138   2     11.03403     10.62353      8.56284        -1.607125     -1.491370     -0.195103
139   2     10.16399      8.35258     10.43274         0.622457     -0.394185     -0.356822
140   2      8.43718     10.53269     10.51584         0.438810     -0.099421      0.055061
141   2      8.78635      8.33085     12.82934        -0.906809      0.146330     -0.015777
142   2     10.35852     11.33695     12.68694        -0.738726     -0.622912     -0.317754
143   2      9.97293      9.46698     14.93214        -0.371128     -0.031050      0.497830
144   2      8.08718     11.54350     14.95824        -0.106850     -1.354227      0.429910
