ITEM: TIMESTEP
0
ITEM: NUMBER OF ATOMS
144
ITEM: BOX BOUNDS pp pp pp
0.0 12.5220000000000002 
0.0 12.5220000000000002
0.0 35.7286733700000028
ITEM: ATOMS id type x y z fx fy fz
1   2      0.11184      0.07975      0.00904         1.004791     -0.994364     -0.768308
2   2      2.27145      2.31141     35.66901         0.456235      0.256373     -0.481310
3   2      2.17695     12.34877      2.09264         0.498661     -0.154039     -0.227051
4   2      0.45636      1.97688      1.89294        -1.476451      0.887483      0.415264
5   2      0.03142     12.48413      4.07804         0.265590      0.210428     -0.148586
6   2      2.13958      2.14442      3.96964        -0.120710      0.272923      0.903889
7   2      2.13207     12.41635      6.13054        -0.657949      0.083625      0.307650
8   2      0.12998      2.06529      6.15594        -0.107269     -0.233671      0.023782
9   2      0.04245      0.06040      8.39454         0.153931     -0.134434      0.021121
10   2      2.07984      2.00840      8.29654        -0.235032      0.336044      0.558113
11   2      2.13480     12.44784     10.53764        -0.779383      0.548537      0.143442
12   2     12.41455      2.02779     10.46074         0.869855      0.804431      0.769954
13   2      0.04235      0.12657     12.81494         0.125509      0.330319     -0.898380
14   2      2.13632      2.16619     12.55424        -1.003555     -0.283139      0.378203
15   2      2.18740     12.36351     14.79454         0.352145      0.706087      0.067403
16   2     12.14372      2.22039     14.59864         0.407268      0.510242      0.010499
17   2      0.02731      4.41541     35.33281         1.039391     -0.742433      0.350984
18   2      2.10369      6.48417     35.45871        -0.073887     -0.266785      0.113037
19   2      2.12643      4.43492      1.95654        -0.340293     -0.145052      0.123325
20   2     12.41916      6.25932      1.97524         0.751462     -0.191774      0.961199
21   2     12.43931      4.03687      4.17364         0.625982      0.575966     -0.776940
22   2      2.19689      6.31484      4.43674        -0.631136     -0.699049     -1.059072
23   2      2.21343      4.15058      6.31714        -0.578235      0.846351     -0.454264
24   2      0.05137      6.46994      6.18564        -0.560560     -0.944099      0.414620
25   2      0.11755      4.13442      8.12124        -0.449464      0.137962      0.472445
26   2      2.03160      6.54910      8.43134        -0.530912     -1.055126      0.020942
27   2      1.96489      4.22574     10.39484         0.069483     -0.864331     -0.236129
28   2      0.01528      6.18618     10.46714        -0.693109      0.324048     -0.114575
29   2     12.49346      4.26530     12.57814        -0.077917     -0.785055      0.079300
30   2      2.06750      6.10957     12.57964        -0.294273      0.141926      0.153845
31   2      1.95561      4.05222     14.75624        -0.177925      0.019252     -0.253033
32   2     12.47992      6.36672     14.82434         0.282416     -0.571142     -0.150987
33   2      0.01257      8.45787     35.61721         0.535958      0.353884      0.157359
34   2      2.29565     10.42981      0.00594        -0.776410     -0.124255     -0.345033
35   2      2.22470      8.21380      1.91904        -0.316018      0.023545      0.203043
36   2     12.43009     10.29495      2.12324         0.258006      0.327807     -0.626882
37   2     12.49667      8.38333      4.17404        -0.202414     -0.228041     -0.160201
38   2      2.11407     10.25303      3.94954         0.108979      0.109794      0.152265
39   2      1.98608      8.44224      6.29094        -0.231703      0.490576     -0.022246
40   2     12.35007     10.51283      6.51244         0.471341     -0.435807     -1.019068
41   2     12.37524      8.38140      8.48904        -0.026906     -0.125877     -0.096107
42   2      1.89942     10.50631      8.39264         0.599128     -0.105797     -0.078902
43   2      1.99750      8.46045     10.55844         0.059755     -0.430331      0.270342
44   2      0.06722     10.44916     10.67084        -0.247590      0.143478     -0.040489
45   2      0.14111      8.28850     12.73704        -0.320021      0.221711     -0.344971
46   2      2.16415     10.42921     12.84114        -0.116895     -0.285941     -0.424584
47   2      2.04498      8.40638     14.84664        -0.170682      0.286450     -0.037299
48   2     12.45816     10.78667     14.76204        -0.374700     -1.034499      0.123829
49   2      4.09160      0.06391     35.52721         0.019998     -0.201044      0.443855
50   2      5.92548      2.14594     35.63401         0.269399      0.119609     -0.010836
51   2      6.19145      0.19095      2.02814         0.142449     -0.475587     -0.338470
52   2      4.15944      2.18729      2.12884        -0.212776     -0.028810     -0.591177
53   2      4.14147      0.11956      4.26004        -0.001694     -0.938941     -0.610614
54   2      6.09786      1.99336      4.20344         0.941706      0.559535      0.151300
55   2      6.11083     12.31558      6.39194         0.388256      0.219809     -0.396460
56   2      3.99222      2.17310      6.23454         0.554648     -0.761740     -0.144371
57   2      4.17407      0.16829      8.31234        -0.332127     -0.843365      0.178513
58   2      6.20079      2.09086      8.39364        -0.270937     -1.036297     -0.244397
59   2      6.11884      0.02209     10.39284         0.140167     -0.462182      0.188287
60   2      4.04003      2.00386     10.55514         0.414164      0.567261     -0.403416
61   2      4.16847      0.03764     12.65484         0.183179     -0.221928     -0.138140
62   2      6.53941      2.03694     12.61724        -0.642370      0.110046     -0.548346
63   2      6.64508      0.26264     14.65494        -0.601624     -0.757852      0.456632
64   2      4.33026      2.05240     14.52784        -0.417243     -0.553059      0.792420
65   2      4.23316      4.57314     35.51111        -0.392094     -0.462856      0.095913
66   2      6.44434      6.21141      0.08004         0.394587      0.172791     -0.601594
67   2      6.18169      4.16343      1.96204         0.661659     -0.469869      0.119279
68   2      4.26674      6.22539      2.16934        -0.284956      0.578236     -0.643939
69   2      4.32067      4.31217      4.15574        -0.695360     -0.410524      0.345261
70   2      6.31567      6.27047      4.13654         0.204340      0.130960      0.000505
71   2      6.04334      4.03648      6.35394         1.144793      0.623808     -0.453414
72   2      4.12620      6.37743      6.51894         0.180204     -0.526662     -0.551221
73   2      4.21079      4.16115      8.40264        -0.434398      0.239119      0.727824
74   2      6.28914      6.42955      8.21114        -0.064749     -1.064029      0.155506
75   2      6.34002      4.02304     10.39334        -0.699750      0.455327      0.676065
76   2      3.97358      6.11845     10.51544         0.862830      0.179907     -0.047867
77   2      4.23378      3.98317     12.64254         0.359312      1.119263     -0.496518
78   2      6.39434      6.17616     12.42314        -1.418659      0.066064      0.035537
79   2      6.01147      4.15481     14.91264         0.490030      0.574185     -0.401651
80   2      3.74956      6.26484     14.74684         0.746519     -0.562247      0.277037
81   2      4.48958      8.08791     35.45581        -0.331562      0.325763      0.212489
82   2      6.57757     10.34398     35.31461        -0.155138     -0.141762      0.673719
83   2      6.34621      8.35392      1.98984         0.518060      0.141602      0.127774
84   2      4.34029     10.17462      1.74994         0.374498      0.692569      0.437545
85   2      4.19429      8.15258      4.22904         0.418218      0.949482     -0.394943
86   2      6.35644     10.67387      4.00874        -0.156672     -0.609757      0.058132
87   2      6.21947      8.45440      6.22884         0.181156      0.360108     -0.567917
88   2      3.96760     10.34177      6.08004         0.868406      0.146031      0.321958
89   2      3.99564      8.43848      8.37594         0.741471      0.760754      0.289295
90   2      6.50648     10.34157      8.34394        -0.943360      0.329012      0.131716
91   2      6.10327      8.14027     10.35884        -0.158706      0.693088      0.425416
92   2      3.94820     10.44746     10.42014         0.939747     -0.215080     -0.037775
93   2      4.03065      8.15807     12.62514        -0.106422      0.321615     -0.587741
94   2      5.98616     10.35310     12.39124         0.397213     -0.239726     -0.269373
95   2      5.95940      8.20992     14.50734         0.489350      0.104362      0.325445
96   2      4.43092     10.58172     14.72754        -0.120573     -0.058170      0.025449
97   2      8.16825      0.19686     35.55001        -0.192053     -0.082896      0.074063
98   2     10.92223      2.15120     35.40871        -0.555025      0.385191      0.339996
99   2     10.46972     12.46308      1.55854        -0.129357      1.040938      0.902980
100   2      8.37521      2.24364      1.73174        -0.075159     -0.183834     -0.029201
101   2      8.45110      0.09720      4.14044        -0.645618     -0.506343     -0.923331
102   2     10.39401      1.98245      4.07194         0.715830      0.109890     -0.873894
103   2     10.53750      0.10903      6.14094         0.360785      0.587723      0.645628
104   2      8.28353      1.94242      6.12714        -0.302435      0.376454      0.907772
105   2      8.40253      0.00164      8.45984        -0.402051     -0.245808     -0.671806
106   2     10.55194      1.92601      8.45434        -0.444441      0.938511     -0.937742
107   2     10.58001      0.00515     10.58704         0.067114     -0.744769      0.334737
108   2      8.50747      1.79892     10.42974        -0.886940      0.720173      0.368015
109   2      8.27634     12.28259     12.37194         0.131858      0.583673     -0.579505
110   2      9.96463      2.29901     12.70074         1.667938     -0.892659     -0.314540
111   2     10.29184      0.15625     14.60544        -0.290364     -0.427951     -0.073055
112   2      8.43541      2.30435     14.94434        -0.700768     -0.086518      0.505322
113   2      8.74208      4.54147     35.59331        -0.122508     -0.581466     -0.170337
114   2     10.80542      6.35380     35.54471        -1.346887      0.680519     -0.471537
115   2     10.59846      3.95115      1.91614         0.345903      0.163443      0.174935
116   2      8.37622      6.07057      2.11194         0.234724      0.478700      0.252840
117   2      8.37826      3.95775      4.09434        -0.831862      0.215278     -0.372150
118   2     10.27620      6.21587      4.24104         0.883826      0.274667     -0.763621
119   2     10.38579      4.05363      6.00344         0.006847     -0.160266      1.219593
120   2      8.23709      6.23665      6.03864        -0.065390     -0.164510      0.919162
121   2      8.21932      3.81340      8.41384         1.118239      0.928855     -0.952911
122   2     10.41968      5.88515      8.12024        -0.182099      0.343904      0.371343
123   2     10.10012      4.19998     10.51854         1.121341     -0.224209     -0.392488
124   2      8.35575      6.31146     10.23964        -0.196556     -0.147171      0.093972
125   2      8.16355      4.20609     12.57494        -0.248909      0.602888      0.386240
126   2     10.37907      6.02722     12.67254         0.220782      1.112293     -0.570475
127   2     10.16179      4.35332     14.76084         0.618832      0.177846      0.611279
128   2      8.18011      6.44814     14.68464        -0.078786     -0.888013      0.846534
129   2      8.50591      8.19679     35.47341        -0.118848     -0.136309      0.392592
130   2     10.35250     10.27830     35.66201         0.268499     -0.295762     -0.418853
131   2     10.38449      8.24992      2.04244         0.124934      0.019480     -0.227064
132   2      8.44368     10.72681      1.90654        -0.904242     -0.701030      0.422932
133   2      8.45529      8.48461      3.95374        -0.598632      0.284489      0.578305
134   2     10.54071     10.54893      4.20974        -0.299005     -0.535246     -0.436518
135   2     10.35030      8.28090      6.37034         0.227567      0.205161     -0.431938
136   2      8.63185     10.70685      6.26844        -1.063684     -0.982705     -0.153670
137   2      8.32846      8.29434      8.22694         0.550143     -0.009058      0.046360
138   2     10.41347     10.54582      8.44614         0.013734     -0.369199      0.551057
139   2     10.42971      8.20442     10.45034         0.152874     -0.085559      0.357436
140   2      8.37359     10.19458     10.40634        -0.187436     -0.025439      0.496569
141   2      8.36874      8.09486     12.64404         0.253682      1.222575     -1.029950
142   2     10.45187     10.37616     12.45704         0.061836     -0.266773      0.567810
143   2     10.54733      8.29815     14.59794        -0.324152      0.445892     -0.130790
144   2      8.18751     10.43061     14.23484         0.096245     -0.768072      0.933775
