ITEM: TIMESTEP
0
ITEM: NUMBER OF ATOMS
144
ITEM: BOX BOUNDS pp pp pp
0.0 12.5220000000000002 
0.0 12.5220000000000002
0.0 35.7286733700000028
ITEM: ATOMS id type x y z fx fy fz
1   2     12.23406     12.43290     35.58081         0.824747      0.446399     -0.010323
2   2      2.17216      1.93742     35.72651        -0.507146     -0.048956     -0.548781
3   2      2.10125      0.05077      2.02154        -0.571687     -0.434700      0.096468
4   2     12.24830      2.25564      1.72284         0.595838     -0.812829      0.731019
5   2      0.10341     12.35990      4.17014        -0.764609      0.159913     -0.599805
6   2      1.80597      2.24672      4.13744         0.457890     -0.348462     -0.000076
7   2      1.96261      0.06441      6.14704         0.929831     -0.027293      0.282432
8   2     12.37785      1.85937      6.38844         0.210693      1.534136     -0.502329
9   2      0.08336     12.41715      8.23754        -1.321402      0.140490      0.409727
10   2      2.13798      2.14860      8.35204         0.289217      0.367226     -0.177325
11   2      1.93623      0.04084     10.27444         1.013930      0.240415      1.060050
12   2      0.13981      2.14925     10.45764        -0.756347      0.162847     -0.485593
13   2     12.46939      0.12427     12.55654         0.317910     -0.214905      0.247112
14   2      1.83612      2.22960     12.51764         1.516241     -0.336846      0.328720
15   2      1.99724      0.13650     14.64854        -0.069875     -0.465111      0.191889
16   2      0.00976      2.08998     14.59874        -0.164694      0.486026      0.577551
17   2     12.45385      3.89898     35.25081         0.319865      0.422326      0.151106
18   2      2.15385      6.16510     35.35441        -0.003022     -0.121852      0.333343
19   2      2.06584      4.06224      1.75494        -0.145152      0.070825      0.213082
20   2      0.10642      6.16708      1.84594         0.156992      0.188467     -0.599229
21   2     12.45215      4.19976      3.94104        -0.139748     -0.402900      0.311047
22   2      2.03400      6.19931      3.99714         0.041947      0.196996      0.142601
23   2      1.95629      4.33261      6.36764         0.247808     -0.827676     -0.459779
24   2      0.08837      6.38589      6.21814        -0.010521     -0.105368     -0.193361
25   2      0.06511      4.17400      8.42174        -0.024486      0.288195     -0.040855
26   2      2.16718      6.33952      8.37104        -0.000688     -0.471203      0.539251
27   2      2.28389      4.39311     10.69614        -0.419172     -0.043411     -0.611540
28   2      0.17711      6.42004     10.45794        -0.056370     -0.283700      0.218566
29   2     12.51873      4.30090     12.50494        -0.003664      0.270404      0.503647
30   2      2.22201      6.46917     12.72914        -0.201596     -0.355510     -0.469842
31   2      2.11171      4.29704     14.56174        -0.086068      0.016587      0.083578
32   2     12.37855      6.22518     14.63814         0.038133      0.051562     -0.154016
33   2      0.38136      8.41759     35.45961        -1.148531     -0.683567     -0.268378
34   2      2.10361     10.46781     35.49211        -0.368375      1.135943     -0.247108
35   2      2.11390      8.31182      1.80854         0.548716     -0.429962      0.365320
36   2      0.17721     10.38389      1.91594        -0.324563      0.350260      0.089995
37   2      0.12958      8.30884      3.85054        -0.293277      0.034783      0.452956
38   2      2.02365     10.35190      4.31664        -0.033712      0.184893     -0.217128
39   2      2.37073      8.43160      6.61674        -0.589381      0.141614     -1.129047
40   2     12.44773     10.12028      6.27994         0.600290      0.994855     -0.300943
41   2      0.02410      8.34793      8.43134        -0.013178     -0.151613     -0.104901
42   2      2.00546     10.56417      8.39944         0.981540     -0.844645     -0.361881
43   2      2.25237      8.37440     10.37714        -0.017685      0.178848      0.369369
44   2      0.03503     10.35170     10.40794        -0.375033     -0.092417      0.336816
45   2     12.39740      8.45467     12.66304         0.007992      0.230610     -0.253274
46   2      1.87691     10.61511     12.54274         0.711358     -0.319660     -0.004007
47   2      1.91028      8.44012     14.53314         0.533651      0.362674      0.585799
48   2     12.47020     10.51614     14.68854        -0.227976      0.309758      0.190983
49   2      4.10355     12.45997     35.46461         0.282420      0.030825      0.094431
50   2      6.20346      1.83856     35.49221         0.396276     -0.445360      0.195031
51   2      6.07973     12.31658      2.05234         0.467909      0.499314     -0.078417
52   2      4.14795      1.91529      2.17874         0.204605      0.512257     -0.076415
53   2      3.99362     12.46338      4.15954         0.352518     -0.019130      0.191298
54   2      6.36359      2.15033      4.21684        -0.305390     -0.353087     -0.073226
55   2      6.33325      0.11966      6.12044         0.002896     -0.509667      0.333999
56   2      4.28020      2.24823      6.16114        -0.471978     -0.045614      0.281201
57   2      4.06312      0.05588      8.15464         0.509149      0.402825      0.579342
58   2      6.33905      2.11603      8.31134        -0.449059      0.187048      0.006303
59   2      6.17788     12.45816     10.51194        -0.127401      0.300862     -0.413337
60   2      4.28155      2.09985     10.67514        -0.917077     -0.580709     -0.979510
61   2      4.08636      0.04576     12.75854        -0.202327     -0.197759     -0.790630
62   2      6.30227      2.02444     12.53454         0.178272     -0.087685      0.420760
63   2      6.07415      0.39149     14.83214         0.215403     -0.698350      0.242114
64   2      3.97577      2.11337     14.60734        -0.280932      0.668033      0.230404
65   2      4.26962      3.81646     35.50681        -0.224605      0.323005      0.274232
66   2      6.04837      5.98627      0.16714         0.885332      0.164082     -0.594286
67   2      6.34760      3.76792      1.93894        -0.748957      1.094119      0.096072
68   2      4.03117      6.06431      1.84234        -0.355509      0.409459      0.645677
69   2      4.01450      4.24451      4.10554         0.332983     -0.477108     -0.141313
70   2      6.16847      6.26627      3.96854        -0.015093      0.055814     -0.091117
71   2      6.26836      4.31163      6.20174        -0.206608     -0.556876     -0.041847
72   2      4.07412      6.21476      6.20024         0.122360      0.065411     -0.275275
73   2      4.18048      4.26877      8.57614        -0.145002     -0.659226     -0.287532
74   2      6.06746      6.24017      8.34804         0.665610     -0.014942      0.350274
75   2      6.39298      3.98145     10.54994         0.216371      0.700227     -0.418288
76   2      4.43010      6.33435     10.71684        -0.437664      0.064932     -0.878033
77   2      4.30656      4.15802     12.56724        -0.445178      0.083911      0.586723
78   2      6.12307      6.25659     12.84214         1.389330     -0.042950     -0.088263
79   2      6.21356      3.95366     14.59834         0.153461      0.157844      0.290722
80   2      4.25775      6.36660     14.78744        -0.417118      0.026854      0.091656
81   2      4.00744      8.55424     35.33021         0.450876     -0.944386      0.099517
82   2      6.19692     10.40053     35.48231         0.297074      0.179898      0.087761
83   2      6.26351      8.36839      1.88334        -0.524341     -0.219402      0.300236
84   2      4.08893     10.38699      1.72594         0.150478     -0.033193      0.884016
85   2      3.90155      8.45186      3.99524         0.867246     -0.619517      0.075401
86   2      6.12716     10.33556      4.09344         0.243986     -0.126266      0.200819
87   2      6.12413      8.17510      6.24034         0.322427      0.498770     -0.620092
88   2      4.28039     10.53890      6.34154         0.244730     -0.209463     -0.369382
89   2      4.39122      8.49964      8.45144         0.165291      0.256336      0.499346
90   2      6.75369     10.35060      8.19074        -1.024085      0.246707      0.294880
91   2      6.32541      8.54066     10.55734        -0.674169     -0.192739     -1.037107
92   2      4.19308     10.56608     10.53774        -0.406341      0.185577     -0.259221
93   2      4.22598      8.54054     12.47834        -0.212222      0.128780      0.930686
94   2      6.19213     10.65271     12.81554         0.023919     -0.257540      0.130634
95   2      6.62951      8.18896     14.75784        -0.213454      0.389237      0.186795
96   2      4.12761     10.49529     14.75704        -0.243296     -0.131471     -0.270980
97   2      8.47131     12.29723     35.40101        -0.337745      0.229988      0.479932
98   2     10.26206      2.02026     35.47891        -0.121139     -0.400784      0.014728
99   2     10.50852     12.34546      2.02654        -0.269784      0.577417      0.308837
100   2      8.26905      1.92184      2.02754         0.840572     -0.927593     -0.166011
101   2      8.43380     12.43069      4.15124        -0.275536     -0.053719     -0.017900
102   2     10.51233      1.89498      4.22894         0.051214      0.419112     -0.508541
103   2     10.44896     12.42447      6.32384        -0.126379     -0.415837      0.076299
104   2      8.57786      2.05011      6.46344        -0.275097      0.367304     -0.423255
105   2      8.30884      0.12036      8.52304         0.521664     -0.781293     -0.466877
106   2     10.54893      2.23108      8.54104        -0.328092     -0.353477     -0.153929
107   2     10.60769     12.42437     10.54784        -0.474749      0.503969     -1.135177
108   2      8.41200      1.93513     10.50754         0.225562      0.759987      0.166628
109   2      8.32099      0.06822     12.64584         0.086185     -0.530908      0.509366
110   2     10.37526      1.99629     12.64904         0.373195      0.323464     -0.322007
111   2     10.42209      0.25332     14.93074         0.141500     -0.779033     -0.157788
112   2      8.33917      2.00497     14.71534        -0.186952      0.428711      0.410458
113   2      8.25682      3.92901     35.54161        -0.227000      0.290999      0.074203
114   2     10.65632      6.08729     35.57271        -0.111695      0.617930     -0.244491
115   2     10.31460      4.21016      1.75324        -0.374818     -0.168981      0.666253
116   2      8.32892      6.32938      1.98164        -0.027257     -0.456666      0.068869
117   2      8.39580      4.03321      4.04694         0.260473      0.495319     -0.055852
118   2     10.68640      6.27184      3.88144        -0.994074      0.311334      0.263397
119   2     10.33736      4.36886      6.07214         0.640177     -0.441466      0.209652
120   2      8.26430      6.17154      6.25414         0.190817      0.506620     -0.616203
121   2      8.39239      4.34646      8.41414         0.053658     -0.388305      0.216558
122   2     10.56898      6.24873      8.39654        -0.102309     -0.268252      0.002158
123   2     10.54582      4.16619     10.61394        -0.586710      0.163227     -0.462247
124   2      8.12953      6.25321     10.60934         0.208498     -0.171347     -0.013189
125   2      8.47162      4.04904     12.69754        -0.383196      0.622688     -0.321878
126   2     10.58011      6.46429     12.33334        -0.328225     -0.473257     -0.013406
127   2     10.46310      4.02417     14.75334         0.222354      0.201692     -0.135546
128   2      8.83707      6.33304     14.38624        -0.578821     -0.015448      0.381940
129   2      8.37614      8.43576      0.05584        -0.529612     -0.088609     -0.945668
130   2     10.52266     10.32663     35.64231        -0.089490     -0.065770     -0.421478
131   2     10.37606      8.36681      1.79904         1.000518     -0.588809      0.849122
132   2      8.30000     10.48496      2.00864        -0.198596      0.077578      0.146984
133   2      8.41696      8.27227      4.20954        -0.360169     -0.197778     -0.205060
134   2     10.46871     10.28362      4.02994         0.274426      0.084690     -0.045730
135   2     10.56958      8.25569      6.20444        -0.754538     -0.939869     -0.235459
136   2      8.64209     10.28592      6.23984        -0.789090      0.273249     -0.779726
137   2      8.36132      8.07918      8.26634         0.013823      0.024773      0.352925
138   2     10.31701     10.29926      8.38514         0.286225      0.683548      0.368735
139   2     10.30237      8.41788     10.38994         0.000336     -0.022320      0.318900
140   2      8.26991     10.56227     10.72204         0.544996      0.449042     -0.993076
141   2      8.16143      8.52195     12.44844         1.165271     -0.627141      1.387920
142   2     10.49218     10.68700     12.62834        -0.467012     -0.870793      0.645504
143   2     10.17232      8.73142     14.83634        -0.069207      0.317861     -0.537761
144   2      7.86661     10.74245     15.12324         0.466077     -0.057201     -0.430083
