ITEM: TIMESTEP
0
ITEM: NUMBER OF ATOMS
144
ITEM: BOX BOUNDS pp pp pp
0.0 12.5220000000000002 
0.0 12.5220000000000002
0.0 35.7286733700000028
ITEM: ATOMS id type x y z fx fy fz
1   2      5.14014     10.23569     33.50114        -1.719281     -0.251355     -0.163422
2   2      4.16789      0.17767     34.92294        -2.069872     -0.122857      0.252644
3   2      2.12470      0.16089      1.40624         0.079252      0.409100     -0.426975
4   2      2.20179      2.77907     35.68984        -0.470030     -0.690321     -0.168732
5   2     12.27657      0.89959      5.52034         1.625278      0.849539     -1.032085
6   2      2.64303      3.38951      4.35674        -1.400276     -0.697819      1.117236
7   2      2.57423      0.76436      5.95724        -0.286538      0.043791     -0.459865
8   2      1.39989      4.07131      6.94014         0.287421     -1.227825     -0.860843
9   2      0.38469     11.54250      9.85024         2.092901      0.079853     -0.966605
10   2      1.66698      1.53135      8.88874         0.138727     -0.104753     -0.097144
11   2      1.84254      0.45028     11.96854         0.722475     -2.686786     -1.470166
12   2      0.00889      2.08159     11.22954        -0.582709      0.644256     -0.627807
13   2     11.75126     12.02771     12.63604        -0.221418     -0.148565      0.403117
14   2      2.48264      2.20592     13.57504         0.131888      1.408966      1.756813
15   2      2.02961      0.61768     16.56244        -0.233867     -0.716298      0.030254
16   2     12.33563      1.81419     15.43044        -0.373875     -1.062728      0.375296
17   2      1.19327      3.17718     31.46154        -0.402187      0.119219      1.165198
18   2      2.09176      7.16313     35.40374        -1.066997     -1.119799      0.641195
19   2      1.87273      4.72657      1.91574         0.183170     -0.321699      0.174456
20   2      0.22707      6.82583      1.73064        -0.844884      0.326383     -0.128597
21   2     11.61319      4.29041      2.71774        -0.271569     -0.114209      0.688101
22   2      2.60614      7.59561      3.09144        -1.869375     -0.676589     -0.334720
23   2      0.79637      5.80045      4.56204        -0.085642     -0.111128      0.132624
24   2      0.18899      7.68179      6.74304         0.053578     -0.029530     -0.012515
25   2     11.96434      5.33628      8.11104        -0.977343     -0.077893     -0.624668
26   2      2.09223      6.11512      8.71534         0.305799      0.389470      0.746309
27   2      1.29136      4.89553     11.22804         0.698169     -0.530603      0.598501
28   2     12.51451      7.02920     10.24084        -1.089883      0.880553      0.640414
29   2     12.47792      3.82228     13.64574         0.651749      0.835063     -1.025083
30   2     11.65179      6.50873     13.58324        -0.198834      0.367660      0.155328
31   2      2.15905      3.22613     16.26374        -0.533172      1.183936     -0.179358
32   2     11.97948      4.47089     16.25184        -0.163471      0.543957      0.253383
33   2     12.02590      7.84889     34.62884        -0.310425      0.069061      0.489472
34   2      2.18728      9.47219     34.14904         0.477317      0.503934      0.259254
35   2      0.95487      9.61460      1.22154         0.634789      0.296702      0.014989
36   2     12.05358     11.73331      3.22214        -0.645705     -0.931324     -0.874174
37   2     12.42457      8.72815      3.95794         0.646678      0.176705     -0.190827
38   2      1.98184     11.17311      3.74384         1.249279     -0.442566      0.634103
39   2      2.66085      8.44726      5.65044        -0.578367      0.522770      0.522933
40   2      0.18284     10.64469      6.14104        -0.017055     -0.188307      0.100140
41   2      1.34681      9.02411      8.95544         0.343105      0.477106     -0.045628
42   2      2.76098     10.89205      7.19564         0.290970     -0.460944      0.520877
43   2      1.44748     10.03254     11.86184         0.077626     -0.281509      0.122296
44   2     11.23417      9.70428     10.96814         0.309253     -0.754643      0.079135
45   2      0.37820      9.71630     14.47584        -2.149367      0.540420     -0.605072
46   2      2.67991     11.67034     14.45564        -0.409741     -0.337399     -0.512695
47   2      0.85601      6.84887     16.04434        -0.303673      0.286585     -0.645167
48   2     10.53058      6.87697     16.83114         0.165572      0.046712     -0.795629
49   2      6.04513      0.38632     33.18544         0.813934      0.395380     -0.221912
50   2      9.81815      1.65004     32.60414         0.390280     -0.183510      1.146096
51   2      5.92141      0.25385      1.07634         1.147681      0.218067     -1.105989
52   2      3.92003      2.75413      2.10564         0.624981     -0.102867     -0.861205
53   2      4.46624      0.27887      3.22504        -0.713368     -0.652285      1.177393
54   2      5.48595      2.37332      4.64624         0.549612      0.267877     -0.553776
55   2      5.93793      0.09868      6.16474         0.558008     -0.294649     -1.183963
56   2      4.00475      2.86259      6.92354        -1.312077      0.692927     -0.660850
57   2      4.64231      0.48765      8.40644        -1.695250     -2.130676      0.508304
58   2      6.23735      2.48311      8.20744         2.271235      1.169286      0.615564
59   2      6.37097     12.05398     10.60704        -0.210288      0.010035     -0.588963
60   2      4.29268      1.67958     10.72064        -0.127153     -0.236719      0.663716
61   2      5.25930     11.31278     13.64934        -0.158102      0.202878      0.102815
62   2      6.40919      1.32453     12.81704        -0.481306      0.360543     -0.661016
63   2      5.95369      0.90205     15.58434        -0.697910      0.491695      0.350530
64   2      4.22771      1.87154     17.54124         0.424482      0.064106     -0.508943
65   2      0.72904      4.60951     33.93334         2.572179      1.167189     -2.773166
66   2      7.10351      5.74342     35.21064        -2.625030     -1.876139      0.300472
67   2      6.43279      4.23513      2.26424        -0.624313     -0.529877     -0.916213
68   2      4.27247      6.09234      1.26374         0.287028     -0.406457     -0.142844
69   2      4.48928      5.21879      4.02654         0.715605      0.981900     -0.754748
70   2      7.16539      6.61084      3.42204        -1.226024     -0.294710     -2.524976
71   2      6.39242      4.71278      5.97134        -0.863880     -1.306883      0.259113
72   2      3.45165      5.92689      6.42744         0.539672     -0.245936     -0.037774
73   2      4.13297      4.25488      9.25864        -0.018197      0.374000      0.594574
74   2      6.94023      6.06870      8.26414        -1.889183      2.022740      0.638369
75   2      6.58888      3.76346     10.83974        -0.236546     -0.644319     -0.020553
76   2      3.72607      6.54564     11.42134        -0.249631     -0.025032     -1.154653
77   2      4.07424      3.90790     12.18194         0.016707      0.622387      0.279780
78   2      6.26210      5.97856     12.71794         0.488030     -0.229812     -1.548208
79   2      4.55288      3.49228     14.97534         0.597081      0.096675      0.113335
80   2      3.95539      6.70366     14.14704        -0.484481     -0.644744      0.708040
81   2      4.53277      7.58039     34.69874        -0.023365      0.284881     -0.181509
82   2      7.23120     10.88874     34.84764         1.133605      0.083094      0.959654
83   2      8.19899      7.72585      0.92604        -0.127209      0.853082      1.118134
84   2      3.86332     10.40013      1.46514        -0.301494      0.278179     -0.028770
85   2      5.02366      8.29879      2.92904         1.042473     -0.267986     -0.893597
86   2      6.63490     10.31781      2.49504         0.270520      0.406244     -0.520791
87   2      5.42737      7.89450      5.60004         0.616007     -0.576938      1.074097
88   2      4.49970     10.34929      4.73604         0.094780      0.964937      0.221958
89   2      4.10273      8.07265      8.87234         0.036655      0.091528     -0.180882
90   2      5.59252     10.18645      7.74404        -1.123719      0.790859     -0.020331
91   2      6.16172      8.00633     10.71314         0.395062      0.086549     -0.070486
92   2      3.86476     11.09379     10.79334        -0.402847     -0.023020     -0.032643
93   2      3.89159      8.99395     12.77114         0.665007      0.849019     -1.119106
94   2      7.47296     10.02552     12.83344        -0.292337     -1.089578      0.625921
95   2      5.84999      8.84890     15.18744        -0.293650     -0.461441     -0.312947
96   2      2.65937      8.91443     15.14314         1.142187     -0.760007      1.166436
97   2      8.35036      0.75989     34.83734         0.226387      0.866558     -0.219053
98   2     12.49466      2.04842     33.99584        -0.474100     -0.102150     -0.585216
99   2     12.49556      1.70608      2.65004         0.913266      0.865730     -0.593411
100   2      9.43411      2.01795      1.31664        -0.139847     -0.083839     -0.967433
101   2      7.53039      0.26709      3.13874         0.322028      1.056175      1.405063
102   2     10.00966      1.57598      3.79734        -0.183007     -0.146904      1.643123
103   2     10.41066      0.26308      7.08104         0.355399     -0.149637      0.354749
104   2      8.37210      2.00027      6.36474        -0.329151      0.637848     -0.811677
105   2      8.09059     12.34396      8.02824        -1.765404     -0.846110      1.286107
106   2     11.45878      2.43195      8.42844         0.279050      0.171313      0.054641
107   2     10.56166     12.49226      9.96454        -1.516119      0.888077     -0.483970
108   2      9.35859      2.46630     10.65114        -1.254058     -0.680923     -0.254329
109   2      8.70981     12.20990     11.95274         1.246078      1.678637     -0.293127
110   2     10.44936      2.05975     13.15074        -0.553805     -0.865028      0.344611
111   2     10.24942     12.14031     16.21594         0.109798      0.219221     -0.440832
112   2      8.34742      0.27511     14.44064         1.205460      2.087621      0.125359
113   2      6.04262      3.02506     34.87694         0.249289     -0.244853      0.571263
114   2      9.41633      6.59111     34.63214         2.534182      0.481102     -0.877171
115   2     11.75888      4.19384      0.04274        -2.347140     -0.494032      2.432909
116   2      9.00542      4.74159      1.30774         0.557171      0.192182     -0.177387
117   2      8.51923      4.04440      4.06094         0.680140     -0.302659      0.421498
118   2     10.46520      6.60098      3.62454        -0.099274     -0.299071      0.078635
119   2     10.79339      3.56082      5.92964         0.065632      0.020628     -0.099734
120   2      8.18654      6.56037      5.66414         2.144838      1.029912      2.621982
121   2      8.58205      4.19025      8.19014         1.620694     -2.342300     -0.504437
122   2      9.72690      6.74710      8.93854         2.166622      3.235415     -3.194176
123   2     11.16318      4.35099     10.54894         0.727248      1.029805      0.505862
124   2      8.66892      5.47286     10.63594        -2.385441     -1.705355      3.849267
125   2      7.31229      3.56396     14.17064        -0.544695     -0.384914      0.504780
126   2      9.50233      4.70948     13.28374         0.810191      0.251409     -0.215254
127   2      9.67700      2.65781     15.89194         0.081938     -0.163788     -0.744846
128   2      6.22530      5.90475     15.32614         0.016265     -0.334443      1.646279
129   2      6.94331      8.29541     34.19834         1.444091      0.006591     -0.326245
130   2      9.84931      9.84110     34.99914        -0.530961     -0.225259     -0.187260
131   2     10.81384      8.96742      1.59104         0.553648     -0.153168      0.043718
132   2      9.53872     11.47702      1.96734         0.064023     -0.160097     -0.527610
133   2      8.74850      8.78799      3.37344        -0.155546      0.855890      0.349911
134   2     10.05530     11.04687      4.87144        -0.695927      0.778558     -0.014714
135   2     10.25775      8.52434      5.68024        -0.276738     -0.753952      1.151087
136   2      7.38174     10.27188      5.41054        -0.069991     -0.114430      0.161677
137   2      7.71864      8.74012      8.04294         1.166371     -0.630502     -0.030742
138   2     10.40574     10.18295      7.94594        -0.050164     -0.500536      0.352960
139   2      9.19341      7.98672     11.87014         0.239330     -0.446284     -0.402178
140   2      8.59062     10.18886     10.30764        -0.411874     -0.604662     -1.713759
141   2      8.41455      7.07065     14.29864        -0.210085     -0.541613      0.490976
142   2     10.06022      9.10066     14.33034         1.138474      0.814899      0.222425
143   2      8.20643      8.47737     16.79214         0.285124     -0.161931     -0.637461
144   2      7.35493     11.00746     15.89704        -0.314301     -1.485892      1.013356
