ITEM: TIMESTEP
0
ITEM: NUMBER OF ATOMS
144
ITEM: BOX BOUNDS pp pp pp
0.0 12.5220000000000002 
0.0 12.5220000000000002
0.0 35.7286733700000028
ITEM: ATOMS id type x y z fx fy fz
1   2      3.13247     11.12187     35.18604         0.327157     -1.202001     -0.015549
2   2      2.42053      1.08655     35.49931        -0.088777      1.468453      0.378716
3   2      1.44488     11.89946      1.88624         0.405583      0.560757     -0.940514
4   2      0.16819      2.36989      1.34434         0.508472     -0.688798     -0.600819
5   2     12.28801     12.13469      3.92474         0.115613      0.062702      1.308080
6   2      1.49277      1.85454      4.02194        -0.341295      0.740950     -0.044552
7   2      1.64226     12.46318      6.37994        -0.671447      0.054984      0.366251
8   2     12.36481      2.28243      6.43934         0.753916     -0.334878      0.223736
9   2      0.00044      0.15824      8.67164         0.287087      0.332672     -0.174816
10   2      2.61416      2.21532      8.36494        -1.899504     -0.469200      0.243919
11   2      2.09159      0.17250     10.56884        -0.989647     -1.002643      0.060192
12   2      0.00163      2.27356     10.71894         0.570818      0.401962      0.061974
13   2      0.35142      0.23002     13.46114         1.019162     -0.841384     -0.787726
14   2      2.45316      2.05051     13.26374        -0.044008      0.394056     -0.347943
15   2      2.87405     12.18804     14.98604        -0.299012     -1.237519     -0.447024
16   2      0.03623      2.15872     15.41154        -0.993085      0.336542     -0.358149
17   2      1.35477      3.89886     34.84894        -0.326434     -1.229960      0.386599
18   2      2.35935      6.18230     35.60564         0.267257      1.361647     -0.007559
19   2      2.22615      4.01794      1.94584         0.487451      0.585898     -0.476532
20   2     12.46922      6.36668      1.34654         0.235624     -0.441968     -0.903907
21   2      0.02176      4.46693      3.62884         0.866701      0.857395      0.218261
22   2      2.33102      6.21911      3.91544        -0.191761      0.298945     -0.428605
23   2      2.12495      4.04820      6.13224        -0.727987      0.002563      0.154619
24   2      0.09720      6.03902      5.95744         0.348074      0.444313      0.249301
25   2     12.49513      4.32056      8.42184        -0.270274      0.012593      0.027512
26   2      1.80837      6.51190      8.33064         0.618510     -0.525100     -0.658516
27   2      1.90139      4.25944     10.39044         0.082930      0.007444     -0.334287
28   2      0.03292      6.30156     10.67504        -1.141390     -0.894874     -0.027077
29   2      0.40407      4.34646     12.94214         0.143604     -0.157899     -0.096593
30   2      2.43530      6.74777     12.53034        -1.729013     -0.630653      0.805457
31   2      2.52307      4.42112     15.19014        -0.105348      0.944612     -0.857752
32   2      0.43535      6.48918     14.81404        -0.124055     -0.006114     -0.097626
33   2     12.25251      7.99017     34.82294        -0.218045      0.059709      0.301695
34   2      2.20652      8.78561     33.83954         0.104309     -0.177263      0.873881
35   2      1.66351      9.29334      0.94994        -0.256739     -0.544592     -0.124051
36   2     11.34597      9.77812      1.52664         1.813024      1.795654     -0.065205
37   2     12.31989      7.72029      3.57004         0.453476      1.368038      0.769047
38   2      1.77331      9.90181      3.77124         0.086743     -0.142369     -0.226398
39   2      1.58201      8.20192      5.89554         0.641434      0.581900      0.493861
40   2     12.07874     10.37627      6.01214         0.818443     -0.708039      0.861152
41   2     12.13860      8.35551      8.36724         0.377946      1.010594     -0.066529
42   2      1.61450     10.19237      8.37884         0.609950      0.685237     -0.438775
43   2      1.72740      8.25594     10.43834         1.065655      1.889805     -0.399418
44   2     12.45315     10.57039     10.56014         0.227346     -0.337618      0.809634
45   2      0.23216      8.50381     12.81634        -0.302851      0.336335     -0.681173
46   2      2.36279     10.70154     12.64654        -1.033859      0.359511     -0.269227
47   2      2.41928      8.83402     14.73004        -0.437736     -0.071921      0.326239
48   2     11.97486      9.31104     15.23434        -0.379897      0.296720      0.317865
49   2      5.10682      0.34423     34.60544         0.241844      0.288797      0.158122
50   2      7.61163      0.94234     33.68514         0.206696      0.309139      0.993322
51   2      6.46192      0.20017      1.34694        -0.603056      0.884655      0.319760
52   2      3.87705      1.71056      2.31114         0.373232     -0.050830     -0.566260
53   2      3.32205     12.39529      4.26964         0.844283     -0.738931     -0.003069
54   2      6.06787      1.85049      4.28744         0.361963      0.384525     -0.652461
55   2      6.31975     12.37364      6.14924        -0.885852      0.241155      0.127061
56   2      4.01581      2.03173      6.06414         0.534577     -0.112154     -0.383555
57   2      4.04761     12.48473      7.87274         0.541350     -0.832643      0.706373
58   2      6.00269      2.32565      8.68764         0.290990     -1.227942     -0.650815
59   2      5.84283     12.33682     10.26384         0.953549      1.934424      0.218784
60   2      3.85393      2.05505     10.77654         1.422329      0.480142      0.151799
61   2      4.54850      0.07423     12.74294        -1.537689      0.056939     -1.892673
62   2      6.20413      2.46104     12.75344        -0.275798      0.881939     -0.628433
63   2      5.48017      0.97403     14.90884         0.322171      1.290271      2.187728
64   2      2.49900      1.93721     16.05384         1.161399      0.649726      1.212606
65   2      4.08837      3.61390     35.24074        -1.029226     -1.188138      0.623808
66   2      5.94318      5.31833     34.95364         0.311093      1.104734     -0.165157
67   2      6.04801      3.62084      2.02664        -0.263944      0.105804     -0.281455
68   2      4.62692      6.19797      1.44634        -0.235244     -0.114393      0.807277
69   2      4.06592      4.03739      4.02884         0.512126     -0.038827     -0.071057
70   2      6.15749      6.23854      4.19964        -0.124030     -0.308802     -0.751088
71   2      6.23601      4.23773      6.26544         0.076093     -1.097066     -0.029964
72   2      4.11690      6.00801      6.10824        -0.234406      1.121321      0.474881
73   2      4.10728      4.37814      8.35844         0.192008      1.160948      0.182016
74   2      6.20535      6.64747      8.37524        -0.586568      0.353519      0.376564
75   2      6.22222      4.46409     10.23454        -0.726330      0.505801      1.908688
76   2      4.43460      6.75812     10.84794         1.100271     -0.041382     -1.403797
77   2      3.87487      4.34451     12.18234         0.882664      0.200522      1.179060
78   2      6.90617      6.58801     13.44054         0.584294     -0.013113     -0.685913
79   2      6.01399      4.35984     14.77804        -0.128620     -0.347257     -0.260908
80   2      4.34015      6.58171     14.31244         0.294823     -0.543480      1.137206
81   2      4.67542      8.35193     35.13394        -0.393790     -0.458330      0.303582
82   2      6.46280     10.30708     35.55724        -0.649700      0.038442     -1.063001
83   2      6.31030      8.36881      2.01404        -0.445797      0.059557     -0.251175
84   2      4.21326     10.78095      2.18434         0.216079     -0.266709     -0.155936
85   2      4.24159      8.40558      4.24224         0.016364     -0.154908     -0.621593
86   2      6.48336     10.69613      3.94754        -0.960546     -0.771918      0.472790
87   2      6.10755      8.70460      6.31784         0.339433     -0.240653     -0.404806
88   2      3.55910     10.25243      6.19914         0.015077      0.626699     -0.292517
89   2      3.93532      8.48742      8.23774        -0.119692     -0.878818      0.480519
90   2      6.12043     10.21924      8.62524         0.358388      0.020163     -0.723605
91   2      6.65561      8.53677     10.90174         0.096310     -0.817750     -0.176137
92   2      4.02804     10.49007     10.39184        -1.432119     -0.944615      0.006193
93   2      4.43165      8.88631     12.74824        -0.308358     -1.112788     -0.108661
94   2      6.31586     10.65351     12.74644         1.590417      0.008725     -0.392401
95   2      7.08735      8.61690     15.20444        -0.995678      0.028376      0.002177
96   2      4.78549     10.32252     15.28244         0.070556     -0.458485     -0.135125
97   2      9.27821     11.88442     35.48364        -0.124954      1.553543     -0.419136
98   2      9.81844      2.25691      0.10386         0.290811     -1.123494     -2.217186
99   2     10.86498      0.41184      1.89024        -0.817027     -0.621599     -0.817855
100   2      8.45514      2.26260      2.27414        -0.737920     -0.415395     -0.374576
101   2      8.35987      0.18593      3.87114         0.462866     -0.646873      0.672839
102   2     11.04316      2.34199      3.91954        -0.969568     -0.792810      0.421941
103   2     10.69683      0.13141      6.60384        -1.019210      0.046585     -0.217057
104   2      8.43774      1.91437      6.16084         0.168152      0.397360      0.322552
105   2      7.96326      0.03567      8.34794         0.402475      0.602140      0.423520
106   2     10.24090      2.44154      8.68774        -0.095782     -0.098238     -0.292709
107   2     10.72019      0.33747     10.84324        -0.941474      0.029655     -0.163878
108   2      8.31125      2.29344     10.81244        -0.386951      0.541471     -1.586373
109   2      8.12725      0.53501     12.70444        -0.032597     -1.629138      0.758489
110   2     10.56969      1.68227     13.37684        -0.260771      1.591411     -0.714970
111   2     10.69793     12.11213     14.91894        -0.551306     -0.954026      2.162743
112   2      8.46238      1.81551     15.30334        -0.271210     -0.076615     -0.534305
113   2      8.19628      4.04727     34.59304         0.470883     -0.567578      0.028865
114   2      9.97470      6.07006     35.38634         1.190006      0.004822     -0.182908
115   2     10.71718      4.22175      1.57154        -0.661502      0.845379      0.458726
116   2      7.81273      5.74986      1.50444        -0.029989     -0.658605      1.221214
117   2      8.49510      4.02714      4.13324        -0.506512      0.859963      1.275892
118   2     10.14725      6.17006      3.85724        -0.275965     -0.187801     -0.083045
119   2     10.66534      4.38929      6.18644        -1.958006     -0.863370      0.099549
120   2      8.14947      6.20621      6.33604         0.621990      0.658356     -0.897589
121   2      8.16254      4.59878      8.48024         0.964576     -1.577404     -1.058780
122   2     10.39652      6.47626      8.29404        -0.874114     -1.398821      0.321574
123   2     10.38770      3.95135     11.37394         1.579109     -0.599580     -0.990055
124   2      8.70410      6.05538     10.60454        -1.135832      0.352841      0.239054
125   2      8.51478      4.25975     13.14804        -1.312443      0.033737      1.015668
126   2     10.48746      6.42540     12.50434         0.666771      0.698058      1.625613
127   2     10.77053      4.11750     14.85654        -0.150539      0.706383     -0.144702
128   2     10.10403      7.14994     15.32034         0.158978     -0.137610     -0.497582
129   2      7.72892      7.39913     35.13274        -1.020753      1.491364     -0.643728
130   2      9.72014      9.42242     34.77934         0.264282     -1.204866      0.353019
131   2      9.56879      8.04879      1.74274        -1.412369     -1.434361      0.026121
132   2      8.09541     10.65943      1.80454         1.883668     -0.815865      1.220128
133   2      8.08569      8.16480      4.11254         0.483573      0.555907      0.636786
134   2     10.12710     10.36935      4.11334        -0.514379     -0.356936     -0.812909
135   2     10.38188      8.09581      6.06344        -0.150059      0.378921     -0.526710
136   2      8.41837     10.65000      6.26814         0.449072     -0.320495     -0.085018
137   2      8.38174      8.61759      8.21434        -0.037586     -0.325798     -0.062789
138   2     10.24281     10.77243      8.82654         0.181475      0.028540     -0.873195
139   2      9.96404      8.51615     10.53334         0.752023      0.136493      0.140554
140   2      8.26914     10.83139     10.72504         0.073532      0.369028      0.335153
141   2      8.80228      8.74963     13.05414        -0.363539     -0.505032     -0.006663
142   2     10.45919     10.84402     12.65714         0.366873     -0.673139     -0.668814
143   2      9.22491      9.77415     16.14064         1.172760      0.583921     -0.464578
144   2      7.25456     11.54782     15.11064         1.370425     -0.064023      0.936686
