ITEM: TIMESTEP
0
ITEM: NUMBER OF ATOMS
144
ITEM: BOX BOUNDS pp pp pp
0.0 12.5220000000000002 
0.0 12.5220000000000002
0.0 35.7286733700000028
ITEM: ATOMS id type x y z fx fy fz
1   2      5.48352      9.95861     34.55334         2.890637      1.570538     -0.207316
2   2      3.50083     12.02580     34.06934        -0.084352      0.087349      0.212203
3   2      2.53910      0.20182      1.43384        -0.132472      0.112728     -0.168672
4   2      2.62322      2.10262     34.74084        -0.360114      0.286761      0.190924
5   2      0.39832      1.41062      4.92684         0.700607      0.220367     -0.643229
6   2      1.88862      3.66890      4.10434         0.049105     -0.789870      1.500597
7   2      3.41304      0.52698      5.11274        -1.126675     -0.530630      0.378623
8   2      1.01337      3.80854      7.14184         0.211083     -1.071875     -0.435686
9   2      1.86030     12.50923     10.03184         0.394193     -0.428183      0.631314
10   2      1.58171      0.95455      7.51904         0.029121      0.221254     -0.352856
11   2      2.23570      0.97288     13.21034         0.012225      0.792223     -0.698850
12   2     12.50525      2.33399     11.78844         1.566469     -0.831640      0.364190
13   2     11.96594      0.10807     13.11184         0.395530     -1.582632     -0.771570
14   2      1.28851      3.65518     14.06284         0.326959     -0.232288      0.034812
15   2      1.73366      0.46236     16.59374         0.183983     -0.700643      0.004271
16   2     12.07523      1.52683     15.33264         0.568160     -0.488879      0.850089
17   2      0.53427      5.81605     30.41834         0.303799     -0.491122      0.184143
18   2      2.26499      6.70655     34.87354        -0.622578     -0.605590     -0.027244
19   2      2.32175      4.19033      1.65024        -0.924947      1.068918     -1.121837
20   2     12.00575      7.59083      1.21784         1.543917     -0.824274     -0.164861
21   2     11.61921      4.31364      2.81024        -0.027674      0.165690     -0.333084
22   2      2.47562      7.39890      1.93724         0.138952     -0.340413      0.062479
23   2      0.37507      5.71307      4.99174        -0.140503      0.675900     -0.204872
24   2      0.24055      7.82677      6.80784         0.260725      0.581695     -0.486853
25   2     11.55313      5.58511      7.70264        -0.938402      0.585828      0.192692
26   2      1.45985      6.02639      8.92424         0.473189      0.399190      0.694142
27   2      1.35597      4.71899     11.45614        -0.124503      0.300147     -0.185436
28   2     12.09930      6.72086     10.65994        -0.761943      0.324769      0.252249
29   2     11.14383      3.88261     14.78804        -0.651348      0.653858     -0.116968
30   2     10.87952      6.53814     14.54374        -0.947167     -0.151265     -0.196936
31   2      1.00070      2.71364     17.68944        -0.520449      1.179606     -0.046353
32   2     12.47631      5.20155     17.12854        -0.261355     -0.047611     -0.765085
33   2      0.23059      8.85231     34.18954        -0.210401      0.424311      0.637520
34   2      3.13884      9.28605     34.90114        -3.450317      0.242045      0.550276
35   2      1.32568      9.93116      1.75284        -0.166256     -0.743710     -2.156885
36   2     12.44342     11.84181      2.96474        -0.641287      1.382166      0.540583
37   2      0.45781      8.78962      4.09334        -0.792991     -1.249303      0.530420
38   2      2.30178     10.73242      4.05674        -0.664260      1.012607      1.293691
39   2      2.96544      7.55096      5.60394        -0.020630      1.025952     -1.890012
40   2      0.15269     11.02120      6.07724        -0.746869      0.008243     -0.709119
41   2      1.33171      9.24764      9.75234         0.054774     -0.230597     -0.200235
42   2      2.27999      9.77085      6.90234        -0.033934      0.176401      0.746162
43   2      2.89271     10.73162     12.15724        -0.567832      0.290371      0.819309
44   2     11.80581     10.68520     10.87114         1.193011     -0.487858     -0.347298
45   2      0.54704     10.47583     16.47514         0.056543     -0.145968     -0.259911
46   2      2.58016     11.33665     14.68324        -0.148164     -0.895889      1.001798
47   2      0.52736      7.77130     15.32534         0.794508      0.438603      0.668388
48   2     10.60458      7.31079     17.24304         0.444804      0.141999     -0.240092
49   2      6.24609      0.63924     33.27574         0.173292     -0.495924      0.578056
50   2      8.86874      0.54205     34.73834         0.040026     -0.180593     -0.533864
51   2      5.43666     12.32601      0.21264         0.569443      0.403168      0.217427
52   2      4.46469      2.54725      1.75394        -0.085586     -0.709518      0.049383
53   2      5.07689      0.19125      2.89154        -1.036663     -0.350207     -1.089498
54   2      5.35086      2.36663      4.41294         1.175224      1.747847     -1.328832
55   2      6.11072      0.42580      6.11424        -0.524695     -1.534549      1.215559
56   2      3.87190      2.87748      6.43784        -1.002834      0.648979      1.213301
57   2      4.36763      0.63630      8.30204        -0.094494     -0.197834      0.282125
58   2      6.45008      2.94781      8.32484        -0.423611     -0.406223     -0.225305
59   2      6.26283     10.62062     11.68624        -0.108902      0.257670      0.650325
60   2      4.63944      0.59828     11.25224        -1.041352     -0.219469     -0.237163
61   2      5.39074     10.91552     14.26664        -0.798064     -0.379864     -0.599097
62   2      7.22806      0.79754     11.83454         0.423304     -0.902846      0.580967
63   2      5.51127      0.45555     16.34904        -1.209048      1.208559      0.263105
64   2      3.67161      2.16513     17.58554         0.371293     -0.207023     -0.734033
65   2      0.04861      6.58973     32.84484        -0.229599     -0.263065      0.605489
66   2      6.68634      5.35530     34.51824         0.687849      0.691973     -1.390781
67   2      6.55989      4.37067      1.18164         2.573197     -0.749786      1.314746
68   2      4.27105      4.79775     35.69274        -1.495244      1.877937     -1.047469
69   2      4.76115      5.06941      2.94984        -0.608481      0.840912      1.411411
70   2      7.58390      6.85625      3.32624         0.073234     -0.178530     -0.197453
71   2      5.95972      5.05073      5.71574        -0.331504     -0.206761     -0.338319
72   2      3.18048      5.50378      7.01774         1.530342     -1.680545      0.554674
73   2      3.43595      3.15692      9.18724        -0.130351      0.094154     -0.005750
74   2      6.25276      5.79846      8.44014        -1.789498      1.004288     -0.802196
75   2      6.13205      3.16687     11.09374         1.001281      0.624573     -0.458824
76   2      4.02958      5.48831     10.66744         0.428793      1.687531     -0.932424
77   2      3.71220      3.28553     12.04474        -1.528367     -1.543058      1.234675
78   2      5.56815      4.98315     13.36224         1.710815     -0.343309     -0.446859
79   2      3.96825      3.31196     15.02304         0.002425     -0.428227      0.158883
80   2      3.11699      5.84175     13.58394        -1.137358      0.549177      0.255216
81   2      4.87512      7.43814     34.10934         0.483782     -1.587694     -0.139635
82   2      8.20361     10.59505     35.70904        -1.360642      0.800665      0.333310
83   2      9.80007      8.68267     35.19694         1.511369     -1.627949     -0.639359
84   2      3.99119     10.12720      1.80854        -0.296472     -0.093280     -1.389821
85   2      4.99984      7.86977      3.47214        -0.503216     -1.065739     -0.457927
86   2      6.58426     10.05681      2.35214         1.302257     -0.068374     -1.167399
87   2      6.04728      8.17156      6.03354        -0.457103     -0.054360      0.258889
88   2      4.85070     10.42189      4.31244         1.041814      0.025054      2.381493
89   2      3.87543      7.91269      8.43394         0.282506     -0.357895      0.134459
90   2      4.83204     10.51083      7.05584         0.865938      0.445393      0.772071
91   2      6.18530      8.23686     10.26114        -0.108197     -0.678447     -1.060333
92   2      3.95277     10.24702      9.93254         0.758017     -0.003346     -1.942016
93   2      4.57467      8.06204     12.48364         0.745628     -0.389801     -1.369968
94   2      7.48216      8.37252     12.71374        -0.503948      0.104096      0.757160
95   2      5.68710      7.97534     15.19714         0.980786      0.706052      0.206555
96   2      3.20334      8.62048     14.54774        -2.068002      0.436022      1.111246
97   2      7.89195      1.79274      1.15044        -1.183792      0.704541      0.539822
98   2      1.65277      4.37565     32.74444        -0.213588     -0.038771      0.649758
99   2      0.47464      2.18843      1.45204         0.793536     -0.220035      0.234782
100   2     10.52537      2.18981      0.62674        -0.296126      0.311872     -0.200195
101   2      7.51129     12.48854      3.76134         0.905120      0.782939      0.209859
102   2     10.39121      1.85891      3.58694        -0.106792     -0.014533      0.150861
103   2     11.26145      0.65412      6.84564        -0.516110      0.509661      1.893886
104   2      7.87737      2.27704      5.76934         1.173308      0.980213     -0.556159
105   2      6.61256     11.62633      9.26574        -0.068222      0.323199     -0.943075
106   2     10.67046      3.10143      8.29104         1.402632     -1.663206      0.955253
107   2     11.76620      0.87419      9.64054        -0.446211     -0.208707     -0.437017
108   2      8.95879      2.51738     10.66634         0.194656      0.071905     -0.421866
109   2      9.61952     11.92724     11.29294        -1.053753      1.204297      0.141785
110   2      9.62020      1.34114     13.37474        -0.314725      0.452694     -0.450046
111   2      9.28304     11.56155     17.07224        -0.138786     -0.014918     -0.258027
112   2      7.58557      0.01187     14.73284         0.603423     -0.266860      0.044842
113   2      5.36956      2.57845     34.88284         0.922290     -0.759725     -0.592611
114   2      9.16178      6.02323     33.38854        -0.093144      0.613614      0.767250
115   2     12.16437      4.68427     35.01034         0.264034      0.026768      0.428860
116   2      9.70650      6.36059      1.26284        -0.881347     -0.630948     -0.073710
117   2      8.61725      4.21652      3.56074        -0.101960     -0.021340     -0.442517
118   2     10.39572      6.94160      3.90554         0.329114      0.054513      0.147625
119   2     10.63576      4.06499      5.51224        -0.144011     -0.260146     -0.199779
120   2      8.27754      6.62376      6.15294         0.149055      0.394007     -0.579168
121   2      8.65836      4.37840      7.44754        -1.013529      0.060377     -0.592706
122   2     11.13811      8.62699      8.79464        -0.319344      0.348805      0.415865
123   2     10.93216      4.24799     11.42804        -0.574727      1.998488     -0.521120
124   2      8.24030      5.30814      9.91264         1.360219     -0.329443      1.979909
125   2      7.12418      2.71075     14.34984        -0.248309      0.299422     -0.098016
126   2      8.60770      4.54367     12.83744        -1.033694     -2.227362      0.493291
127   2      9.39133      1.88584     16.01084        -0.118444     -0.365979      0.176126
128   2      5.37395      5.47469     16.06144         0.272047     -0.324089      0.392786
129   2      7.55986      8.39805     33.73414        -0.245025     -0.700238      0.209727
130   2     10.64489     10.49107     33.07914        -0.027343     -0.498541      0.983536
131   2     11.14874     10.02312      1.40254        -1.032433      1.056089      0.198508
132   2      9.46980     12.22885      1.95144         0.886813     -0.482095     -0.464954
133   2      9.01014      9.54708      3.41334         0.789282     -0.374319     -0.266416
134   2      9.97366     11.87329      4.99954         0.210450     -0.436602     -0.789924
135   2      9.98883      8.79035      6.06144         0.756520      0.397416     -0.075217
136   2      7.65747     10.52065      5.59864        -0.515659     -0.577081      1.209172
137   2      8.03076      8.78757      8.03914        -0.471497     -0.018163     -0.208339
138   2      9.30186     11.34537      8.45414         0.428693      0.071250     -0.242524
139   2      9.45758      6.77313     12.07094         1.566361      1.478240     -1.071773
140   2      8.98396      9.33735     10.51214         0.193872     -0.232748      0.534536
141   2      7.84681      6.23136     14.76484         0.225333      0.317011      0.138362
142   2     11.12267      9.81328     18.34164        -0.332493      0.163227     -0.923666
143   2      7.95871      6.87671     17.41404        -0.382862      0.107362     -0.542812
144   2      6.55159     10.56066     16.60264         1.062911     -0.811173      0.439422
