ITEM: TIMESTEP
0
ITEM: NUMBER OF ATOMS
144
ITEM: BOX BOUNDS pp pp pp
0.0 12.5220000000000002 
0.0 12.5220000000000002
0.0 35.7286733700000028
ITEM: ATOMS id type x y z fx fy fz
1   2     12.40974     12.41374     35.16894        -0.255513      0.147798      0.711992
2   2      1.76755      2.95893     35.25804         0.696701     -0.407858      0.558386
3   2      2.04729      0.44708      1.41084        -0.712473      0.267108      0.651140
4   2     12.46428      2.16856      2.06694        -0.171299     -0.217098     -0.243928
5   2      0.47922     12.36782      4.00144        -0.935662      0.944845     -0.045370
6   2      1.86480      2.35246      4.13804         1.162798     -0.498805     -0.096128
7   2      2.10699      0.00787      6.50514        -0.397316      0.110105     -0.446848
8   2     12.52125      2.01604      6.44204         0.369033     -0.168043      0.417927
9   2     12.42900      0.14939      8.58744         0.244503     -0.992876     -0.214311
10   2      1.83834      2.34927      8.61874         0.745677     -0.719210     -0.240043
11   2      1.99378     12.28861     10.76964        -0.155131      0.538544     -0.402515
12   2     12.34195      1.85113     10.74674         0.588455      0.859045      0.468248
13   2     12.24589     12.33624     12.92914         0.806557      1.399489     -0.451269
14   2      2.02820      2.08273     12.87684        -0.639902     -0.559530      0.061098
15   2      2.19340      0.28046     15.03794        -0.213375     -0.327441     -0.593763
16   2      0.11434      3.30310     15.62044         0.581667      0.172173     -0.520931
17   2     12.12186      4.49346     35.14554        -0.017577      0.528469      0.165909
18   2      2.24624      6.27347     35.53184         1.073232     -0.781303      0.043140
19   2      1.83401      4.39267      1.97804         0.954890     -1.271079      0.059339
20   2      0.04034      6.24839      1.74514        -0.797718      1.457068      0.034636
21   2     12.27657      3.90352      4.51044         0.419922      2.325491     -0.477647
22   2      2.08779      6.15607      4.14264        -0.460488      0.067265     -0.446071
23   2      1.99182      4.42998      6.42724        -0.168624     -0.672025     -0.515277
24   2     12.17731      6.19351      6.18774         0.818135     -0.379619     -0.090703
25   2     12.44272      4.23063      8.48994        -0.703133     -0.000741     -0.400683
26   2      2.06279      6.22708      8.46944         0.147808      0.489605      0.003389
27   2      1.92187      4.20884     10.78304         0.065837     -0.643933     -0.885147
28   2     12.43259      6.20469     10.36884         0.095276      0.362685      0.438650
29   2     12.48263      3.98520     12.69174        -0.537954     -0.263944      0.478577
30   2      2.34357      6.22447     12.41594        -0.063701      0.167811      1.148387
31   2      2.75374      4.47912     15.54674        -0.131857     -0.289786     -0.655366
32   2      0.38663      5.97969     14.66144         0.159463     -0.215030      0.071476
33   2      0.29794      7.91625     35.07164        -1.157096      0.798992      0.442496
34   2      2.18273     10.80281     35.54434         0.670903     -0.827450     -0.546359
35   2      2.10151      8.28164      1.85404         0.433358      0.023034     -0.003950
36   2      0.35005     10.39652      1.80074        -0.852417      0.079227      0.120757
37   2      0.04457      8.42427      4.09304         0.268674     -0.248267     -0.813552
38   2      2.31849     10.52236      3.93124         0.724635     -1.163258      0.233566
39   2      2.16607      8.10651      6.04674        -0.172735      0.453386      0.427231
40   2      0.11221     10.37215      6.07244         0.308704      0.238664      0.448067
41   2     12.49988      8.36865      8.32614         0.123918     -0.214195     -0.215467
42   2      1.92339     10.39943      8.45444        -0.006779      0.162337     -0.280431
43   2      2.22593      8.24885     10.47444        -0.787209     -0.079815     -0.768596
44   2     12.42159     10.14234     10.60044         1.754472      0.459140     -1.132084
45   2      0.12476      7.94385     12.66224        -0.034591      0.709349      0.063120
46   2      2.25240     10.29545     12.60344        -1.108948      0.658247      0.401322
47   2      1.97011      8.35005     14.87554         0.152740     -0.257114     -0.273583
48   2      0.02450     10.25725     14.48844         0.771418     -0.097135      0.500710
49   2      4.18987      0.44256     35.42054         0.075832     -1.241372     -0.825916
50   2      6.45692      1.89189     35.42244         0.370397      0.749422     -0.243449
51   2      6.54943      0.19861      1.80784        -0.755245     -0.163366      0.153594
52   2      4.15830      2.18426      1.63694         0.093115      1.050063      1.118785
53   2      3.91607      0.35316      4.18764         0.091310     -0.316802     -0.511240
54   2      6.35132      2.09724      4.00844        -0.029930      0.040597      0.003137
55   2      5.91659      0.26243      6.38514         0.868673     -0.209621     -0.411486
56   2      4.23225      2.42742      5.96554        -0.429957      0.227638      0.737762
57   2      4.03335      0.15715      8.41054        -0.638113      0.108244      0.448036
58   2      6.15669      2.12363      8.67964        -0.237064      0.040074     -0.951379
59   2      5.79643     12.47330     10.51464        -0.270689     -0.280866      0.518962
60   2      3.86734      2.20135     10.58214         0.383488     -0.362817     -0.221530
61   2      4.10107      0.02885     12.82814        -0.306006     -0.511343      0.013398
62   2      6.16438      1.90826     12.74644        -0.228383      0.778341      0.185586
63   2      6.27305     12.22764     14.80434        -0.727111      0.031567      0.378382
64   2      4.37270      1.97502     14.95204        -0.077802      0.329187      0.210776
65   2      4.47889      4.38770     35.51344        -0.075816      0.074996     -0.037452
66   2      6.59538      6.47954     35.30504        -0.220860     -0.076523      0.636257
67   2      6.40778      4.02849      1.83674         0.108526      0.202573     -0.282902
68   2      4.20492      6.20668      1.96554        -0.266071      0.629782     -0.919138
69   2      4.18540      4.15328      3.83204        -0.158098     -0.730305     -0.396273
70   2      6.19274      6.12568      3.80214         0.539032     -0.225336      0.279106
71   2      6.72665      3.95391      6.18434        -0.405917     -0.101762     -0.251474
72   2      4.37224      5.96583      5.90154        -0.025776      0.407346      0.783559
73   2      4.21022      4.22214      8.19264        -0.015932     -0.331040      0.304701
74   2      6.37668      6.09590      8.24094        -0.503038      0.701363      0.225220
75   2      6.40262      4.14625     10.42414        -1.157410     -0.423958      1.215258
76   2      4.26813      6.08081     10.38944         0.407125      0.118155     -0.059334
77   2      4.09473      3.88391     12.80014         0.338711      1.034861      0.143352
78   2      6.47902      6.34202     12.81764        -0.800244     -0.966423     -0.672002
79   2      6.25913      4.13493     14.66594        -0.057513      0.050486      0.053372
80   2      4.20511      6.64327     14.57124        -1.176193     -1.169097      0.034639
81   2      4.25289      8.65274     35.38034         0.191751      0.029016      0.812841
82   2      6.78107     10.60598     35.10074        -0.892339      0.419866      0.404818
83   2      6.49876      8.69922      1.89544        -1.365811     -0.369756     -0.118472
84   2      4.26998     10.95733      1.88024        -0.026017     -0.326034     -0.326154
85   2      4.24110      8.38215      3.93514         0.062764      0.157912     -0.077184
86   2      6.04895     10.75869      4.05284         0.215158     -0.158164      0.179819
87   2      6.15110      8.23803      6.15884        -0.159024      0.376475     -0.285099
88   2      4.21142     10.51554      6.29134        -0.547880     -0.195541     -0.571243
89   2      4.13808      8.25422      8.05834        -0.175024     -0.382857      0.530436
90   2      6.04210     10.41196      8.37614         0.924840     -0.373449     -0.391920
91   2      6.44571      8.04533     10.62364        -0.183632     -0.116708     -1.249968
92   2      4.14476     10.24120     10.25014        -0.262560      0.272625      0.542216
93   2      4.14727      8.46656     12.42104         1.194381     -1.056151      0.014550
94   2      6.67549      9.75691     12.69714        -3.383374      1.711215      0.495041
95   2      6.32744      7.98598     15.04854        -0.028974      2.462183      0.646360
96   2      4.19407     10.10183     14.63374         0.540583      0.431469      0.381819
97   2      8.71884      0.06631     35.42674         0.234199      0.273427      0.208907
98   2     10.43964      2.40293     35.72604         0.254974     -0.679217     -0.763339
99   2     10.74034     12.30435      2.11364         0.005088      0.272215     -0.135872
100   2      8.61817      2.14417      1.94364        -0.298203     -0.478247     -0.005898
101   2      8.34434      0.06676      4.04754         0.156048     -0.005111     -0.072632
102   2     10.43041      2.12474      4.30094        -0.794935     -1.257922     -0.975703
103   2     10.72982     12.48928      5.95574         0.143681     -0.763244      0.240428
104   2      8.51404      1.66248      6.42584        -1.501662     -0.170964     -0.892223
105   2      7.93360     12.46097      8.61064         0.476886     -0.246290     -0.491610
106   2     10.16851      1.78014      8.46314         0.650761      0.304774      1.276027
107   2     10.29033      0.12990     10.76764         0.252027     -0.762667     -0.670514
108   2      8.08398      1.57517     10.86554         0.248684      2.417292     -0.952174
109   2      7.72275     12.10451     12.50294         0.673236     -0.040403      0.056044
110   2     10.16109      1.92544     13.09044         0.787598      0.254952     -0.319778
111   2      9.77739     11.97777     14.28424         1.244715      1.300696      0.384879
112   2      8.12466      1.87128     14.93724        -0.200445      0.157104     -0.121314
113   2      8.14149      4.09142     35.11944         0.179502      0.378751      0.554491
114   2     10.11586      6.38080     35.23324        -0.115031     -0.057990      0.421820
115   2     10.58964      4.34906      1.95234        -0.024725     -0.130975     -0.269701
116   2      8.48583      6.45987      2.00784        -0.328246     -0.460711     -1.272449
117   2      8.57868      4.13891      3.83264        -0.719678      0.719562      0.846270
118   2     10.54161      6.38712      3.82064         0.206340      0.247964      0.669453
119   2     10.17974      3.83147      6.55024         0.734153      1.101729     -0.555717
120   2      8.32709      6.26890      6.20204         0.364388     -0.467052     -0.478967
121   2      8.34554      4.10597      8.47734         0.340731     -0.388740      0.265207
122   2     10.27269      6.36911      8.20624         0.013508     -0.225360      0.785316
123   2     10.47122      4.12561     10.60614        -0.148597     -0.573386     -0.110569
124   2      8.33966      5.92754     10.62544         0.941107      1.351069      0.012019
125   2      8.45419      4.10358     12.79154        -0.396141     -0.171676     -0.100818
126   2     10.57590      6.17662     12.71894        -0.388886     -0.092683      0.222159
127   2     10.22145      4.32618     14.92644         0.090762     -0.132088     -0.156034
128   2      8.24314      6.30818     14.98754         1.419913     -1.249834      0.095542
129   2      8.44946      8.62018     35.65024        -0.093073     -1.000235     -0.647375
130   2     10.50531     10.36012     35.28044         0.494068      0.539803      0.109239
131   2     10.57540      8.53358      1.62794         0.780360     -0.278858      0.722040
132   2      8.35039     10.67978      1.92424         0.827507     -0.085575      0.179461
133   2      8.04102      8.06042      4.13484         0.732088      1.382084      0.383737
134   2     10.21473     10.20150      4.10404        -0.050972      0.204688     -0.533508
135   2     10.55224      8.36684      6.11084        -0.780429      0.040155      0.078577
136   2      8.35730     10.86889      6.23634        -0.664320     -0.371192     -0.071726
137   2      8.24545      8.45570      7.99184         0.080987      0.284739      0.600753
138   2     10.39461     10.46119      8.07444         0.280760      0.168641      0.631202
139   2     10.47664      8.20652     10.45644        -0.845779     -0.481336     -0.279781
140   2      8.32768     10.28432     10.28204         0.085738     -0.383460     -0.086054
141   2      8.53406      8.21518     12.87124         1.685357     -2.589650     -1.471199
142   2     10.43412     10.36794     12.19954        -1.158874     -0.548132      0.786865
143   2     10.28321      8.88638     14.54314         1.245677     -0.540113      1.526334
144   2      8.17467     10.34749     15.35674        -1.596008     -1.237013      0.540479
