ITEM: TIMESTEP
0
ITEM: NUMBER OF ATOMS
144
ITEM: BOX BOUNDS pp pp pp
0.0 12.5220000000000002 
0.0 12.5220000000000002
0.0 35.7286733700000028
ITEM: ATOMS id type x y z fx fy fz
1   2      0.04395     12.50499     35.61211         0.015056      0.037125     -0.037623
2   2      2.25822      1.93814     35.63961        -0.408820      0.021315     -0.178723
3   2      2.06969     12.50038      1.94454         0.548294     -0.202863     -0.006685
4   2      0.14773      2.16354      1.89694        -0.187406     -0.031967      0.424442
5   2     12.46398      0.09319      4.07104         0.109165      0.168832     -0.010594
6   2      2.19123      2.05186      3.95274        -0.154308      0.344083      0.159152
7   2      2.22293      0.06000      6.03924        -0.551177     -0.086601      0.620184
8   2     12.47070      2.03662      6.33114         0.143565     -0.557262      0.023290
9   2     12.41154     12.47471      8.57804         0.666043      0.343831     -0.630098
10   2      2.13697      1.97348      8.27214        -0.528040     -0.119362      0.069970
11   2      2.24092      0.10291     10.39744        -0.668100     -0.087661     -0.152322
12   2     12.49657      2.22042     10.53604         0.256049     -0.776159      0.046287
13   2     12.49737      0.03022     12.59044        -0.233304     -0.944520     -0.914247
14   2      2.10102      2.01091     12.51284         0.148197      0.169752      0.153530
15   2      1.96547     12.40512     14.46194         0.784673      0.495901      0.427821
16   2     12.39289      1.93667     14.48264         0.125216      0.567395      0.826307
17   2      0.02711      4.01659     35.54521         0.081448      0.546113      0.322080
18   2      1.90745      6.34094      0.04404         0.129609     -0.147820      0.168707
19   2      2.25674      4.18929      2.00484        -0.610349     -0.198900      0.015433
20   2      0.00836      6.06788      2.26224        -0.469461      0.081203     -0.406412
21   2     12.42989      3.94551      4.25464         0.039245      0.203731     -0.427540
22   2      2.09769      6.07321      4.14664        -0.442570     -0.036764      0.448874
23   2      2.05662      3.93526      6.24414        -0.068453      0.506789     -0.336717
24   2     12.50860      6.19040      6.24424        -0.010964     -0.142011     -0.181859
25   2     12.39018      4.03079      8.51554         0.363312      0.367026     -0.682567
26   2      1.93964      6.09643      8.35844         0.154823      0.367319     -0.216853
27   2      2.12544      4.11322     10.35434        -0.070265      0.012620      0.392140
28   2      0.15686      6.28574     10.49484        -0.710744     -0.146438     -0.338605
29   2      0.21912      4.12009     12.76604        -0.536595      0.509017     -0.173989
30   2      2.15730      6.16590     12.37794         0.521117     -0.028981      0.682356
31   2      2.31874      4.05747     14.62924        -0.219088      0.560459     -0.029494
32   2      0.05197      6.24211     14.91794         0.135825     -0.097502     -0.617264
33   2     12.48082      8.37323      0.01484        -0.849956     -0.515858      0.371553
34   2      1.94013     10.17813     35.66681         0.613040      0.655741      0.129891
35   2      1.96646      8.30195      2.25304        -0.088892     -0.056743     -0.275206
36   2      0.00174     10.57991      2.03564        -0.382264     -0.690096      0.181778
37   2     12.27387      8.33850      4.30044         0.388367      0.395018     -0.485204
38   2      2.07409     10.43362      4.06964        -0.035772     -0.068948      0.129882
39   2      1.88324      8.37982      6.31404         0.162001      0.093953     -0.128852
40   2      0.08587     10.76852      6.18924        -0.157430     -0.771082      0.247641
41   2     12.41645      8.28329      8.35494         0.028543      0.295781      0.094732
42   2      2.16891     10.49238      8.29274        -0.448862      0.325523     -0.373274
43   2      2.16672      8.39028     10.31604        -0.397886     -0.307956     -0.431391
44   2      0.05759     10.39411     10.37294        -0.203885     -0.223901      0.292067
45   2      0.27267      8.33035     12.49414        -0.829916      0.228440     -0.287763
46   2      2.18894     10.50220     12.24034        -0.213812      0.089854      0.684365
47   2      2.06151      8.41061     14.50334        -0.013760     -1.139139      0.493945
48   2      0.20799     10.39030     14.63124        -0.845446      0.061729     -0.087020
49   2      4.30213     12.51381     35.56881        -0.113663     -0.390523      0.236083
50   2      6.27305      1.98028     35.51571         0.008554      0.200920      0.039740
51   2      6.27470      0.04445      2.04854        -0.694133     -0.370944     -0.207163
52   2      4.32231      2.10607      1.96514        -0.314230     -0.504731      0.330486
53   2      4.20717      0.02320      4.12414         0.015646     -0.160096     -0.934153
54   2      6.18919      2.20034      4.16814         0.445798     -0.441922      0.031063
55   2      6.14196     12.50359      6.20394         0.794197      0.055406     -0.105994
56   2      4.23023      2.03685      6.17604        -0.138414      0.617206      0.111825
57   2      4.29690      0.09519      8.30224        -0.644975     -0.312354     -0.067420
58   2      6.08713      2.20622      8.55924         0.912041     -0.047148     -1.001067
59   2      6.20532      0.11926     10.53364         0.219967     -0.383070      0.381524
60   2      4.14037      2.16978     10.44544        -0.142159     -0.263231      0.438946
61   2      4.23948      0.02390     12.63334         0.165710     -0.367786      0.176844
62   2      6.34883      2.11964     12.50604         0.570331     -0.122067      0.075355
63   2      6.51799      0.18764     14.68034        -0.068165     -0.292070     -0.509871
64   2      4.30900      2.18371     14.41064         0.115677     -0.555954      0.865174
65   2      4.12574      3.97692     35.69241         0.457349      0.688347     -0.420693
66   2      6.29328      6.19022      0.17464        -0.513115      0.140768     -0.589459
67   2      6.22682      4.19146      2.09634         0.265730     -0.240987     -0.311952
68   2      4.15552      6.26410      2.04634         0.028305      0.355884     -0.363166
69   2      4.37149      4.34239      4.19664        -0.664602     -0.158571      0.313460
70   2      6.41278      6.34423      4.09294        -0.260242      0.172071      0.242239
71   2      6.29019      4.19973      6.30464         0.080450      0.180459      0.216952
72   2      3.95264      6.26540      6.41924         0.349283     -0.073847     -0.108357
73   2      4.10215      4.09641      8.27824         0.054374      0.594759     -0.130798
74   2      6.21903      6.28568      8.32434         0.061041     -0.062904     -0.501704
75   2      6.24802      4.27690     10.49514         0.109228     -0.006714     -0.068787
76   2      4.26599      6.25203     10.31404        -0.455006      0.052059      0.150217
77   2      4.31687      4.10458     12.46644        -0.749084      1.024523     -0.001255
78   2      6.33291      6.38752     12.51354        -0.194111      0.310484      0.215657
79   2      6.27224      4.36482     14.46584         0.243484      0.003371      0.154351
80   2      4.09144      6.48458     14.58204         0.286438     -0.282516     -0.322412
81   2      4.13045      8.38620     35.65771         0.162437     -0.194197      0.330975
82   2      6.42121     10.58563     35.43131         0.033484     -0.222307      0.566607
83   2      6.16612      8.44441      2.11594         0.022801     -0.042328     -0.593404
84   2      4.14489     10.40564      1.96634        -0.091317      0.283254     -0.103591
85   2      4.03036      8.09573      4.29354         0.239128      0.559466     -0.283724
86   2      6.15384     10.44766      4.14934         0.247013      0.012816     -0.497715
87   2      6.17391      8.36764      6.23724         0.052378     -0.710411     -0.024925
88   2      4.19107     10.38409      6.10544        -0.758251     -0.037278      0.317007
89   2      4.19815      8.49885      8.37254        -0.175128     -0.758702     -0.426965
90   2      6.17587     10.47122      8.25894         0.259929     -0.392122      0.089400
91   2      6.36254      8.42221     10.35044         0.018432     -0.062849      0.204506
92   2      4.21319     10.57500     10.29684         0.347720     -0.097637      0.438395
93   2      4.11391      8.34890     12.27224         0.347938     -0.229637      0.644373
94   2      6.09920     10.31440     12.52544         0.325548      0.742211      0.006335
95   2      6.26171      8.48439     14.57714        -0.399988     -0.468210      0.002188
96   2      3.85912     10.31600     14.70774         0.980313      0.597709     -0.316051
97   2      8.53730      0.27287     35.60681        -0.599579     -0.984020     -0.437835
98   2     10.46520      2.13746      0.07894         0.435578      0.503156     -0.611193
99   2     10.47754      0.11063      1.96044         0.169355     -0.295299      0.440403
100   2      8.22624      1.97096      2.05894         0.196683      0.756044      0.307588
101   2      8.25282      0.07393      4.19404        -0.309448     -0.376670      0.473696
102   2     10.27569      1.87949      4.29744         0.281831      0.718683      0.048036
103   2     10.38328     12.44894      6.49654        -0.354091     -0.009762     -0.811810
104   2      8.22256      2.03043      6.56754        -0.107853      0.170690     -0.745614
105   2      8.05011     12.43821      8.40684         0.624726      0.684248     -0.289118
106   2     10.36002      1.97428      8.37304         0.018757      0.181535      0.617447
107   2     10.47152     12.39199     10.53044         0.080996      0.231597     -0.283375
108   2      8.26325      2.26736     10.34894         0.455430     -0.713431      0.688602
109   2      8.58132     12.45616     12.51204        -1.470369      0.003175      0.183373
110   2     10.41978      2.00160     12.37964         0.215765      0.789481     -0.078070
111   2     10.33536      0.03744     14.69144         0.311736     -0.613653      0.149945
112   2      8.56682      2.15484     14.36674        -0.587853      0.435490      0.654205
113   2      8.25160      3.98929     35.68731         0.054882      0.159418      0.027113
114   2     10.33536      6.13095      0.07354         0.515619      0.027865     -0.029625
115   2     10.25173      4.01830      2.17914         0.700708      0.134473      0.105450
116   2      8.35891      6.14239      2.01234        -0.131627      0.251628      0.169419
117   2      8.28069      4.13354      4.21604         0.355329     -0.176606      0.280693
118   2     10.30888      6.32382      4.13884         0.434799     -0.373561     -0.192800
119   2     10.47764      4.10013      6.33934        -0.525462      0.067010     -0.322798
120   2      8.41750      6.33944      6.12714        -0.519104     -0.393919      0.439777
121   2      8.37266      4.24119      8.45754        -0.072075      0.118434     -0.850194
122   2     10.47513      6.15830      8.33354         0.137652      0.191790      0.210640
123   2     10.46119      4.23775     10.56984         0.106460      0.088058     -0.061835
124   2      8.30355      6.22679     10.42914         0.381050      0.472921      0.268081
125   2      8.48487      4.36964     12.54374        -0.190038     -0.640320      0.150205
126   2     10.71006      6.38798     12.46804         0.434119     -0.310479     -0.124034
127   2     10.55575      4.18060     14.75574         0.147336      0.042935     -0.354532
128   2      8.75615      6.41601     14.34564        -0.569590     -0.551104      1.432713
129   2      8.16106      8.14654     35.36161         0.249625      0.493740      0.628323
130   2     10.42640     10.45077     35.72081        -0.076634     -0.158156      0.141152
131   2     10.13482      8.32257      2.01084         0.875015      0.367955     -0.705145
132   2      8.29477     10.72069      1.98064         0.121452     -0.744219     -0.331068
133   2      8.29476      8.54408      3.98584        -0.177709     -0.341326      0.388387
134   2     10.30477     10.57991      4.10584         0.415037     -0.091843      0.147891
135   2     10.37145      8.39100      6.33404         0.359579      0.229621     -0.166819
136   2      8.22977     10.23509      6.22434         0.288687      0.813245      0.180139
137   2      8.42025      8.11838      8.35794        -0.385357      0.594682     -0.150735
138   2     10.19708     10.46260      8.41534         0.564200     -0.381783     -0.320925
139   2     10.30558      8.48229     10.45784         0.700741     -0.363877     -0.280412
140   2      8.26805     10.58242     10.41944        -0.489716     -0.661481      0.592694
141   2      8.56305      8.37206     12.58644        -1.304033      0.069362     -0.740065
142   2     10.40053     10.33736     12.63704         1.240443      0.698026     -0.137960
143   2     10.72210      8.43447     14.63314         0.201322     -0.243734      0.247584
144   2      8.33077     10.30728     14.56444        -0.124575      0.721367      0.367211
