ITEM: TIMESTEP
0
ITEM: NUMBER OF ATOMS
144
ITEM: BOX BOUNDS pp pp pp
0.0 12.5220000000000002 
0.0 12.5220000000000002
0.0 35.7286733700000028
ITEM: ATOMS id type x y z fx fy fz
1   2     12.25361      0.20649     35.15654         0.334915     -0.873868      0.638996
2   2      2.59413      2.41205      0.04926        -0.587991      0.575410     -0.487576
3   2      2.09047      0.10421      1.90474        -0.063425     -1.129792     -0.369027
4   2      0.27868      2.15313      1.70264        -0.345140      0.071268      0.131864
5   2      0.08266      0.09965      3.82824        -0.271070     -0.599746      0.266511
6   2      2.11166      2.05668      3.90394        -0.467168      0.680639      1.114288
7   2      1.89490      0.11045      6.08254         0.786723     -0.741245      0.584607
8   2      0.15545      2.12774      6.15394        -1.168465      0.226756     -0.494925
9   2     12.35067      0.44568      8.43044        -0.216823     -0.751867     -0.529428
10   2      2.22431      2.04397      8.35614        -0.072003     -0.287263     -0.696265
11   2      1.73588     12.51089     10.40524         1.225006      0.829046     -0.047970
12   2     12.43089      2.28060     10.57244         0.800375     -0.351741      0.273521
13   2     12.21030      0.26705     12.60764         0.927797      0.144825      1.592910
14   2      1.90698      2.22269     12.73284        -0.268438      0.242774     -0.191220
15   2      1.88561      0.02340     14.32424         0.035393     -0.111644      0.517432
16   2     12.26635      3.23683     15.68964         0.156985      0.637673     -0.889665
17   2     12.39094      4.24947     35.60394         0.725575      0.307468     -0.262858
18   2      1.89070      6.16189     35.12754         0.266464     -0.167201      0.464854
19   2      2.05887      4.55398      2.12284         1.423045     -1.176824     -0.662454
20   2      0.10507      6.25012      1.87544        -0.101770      0.703155      0.350993
21   2      0.00159      4.12301      3.97994         0.824247     -1.443431      0.327744
22   2      2.03890      6.33555      4.19424         0.231173      0.232045      0.397134
23   2      2.12494      4.11396      6.28454         0.477158      0.169627     -0.570872
24   2     12.48251      6.25168      6.28914        -0.025669      0.466221     -0.453966
25   2      0.10037      4.03368      8.19434        -0.288441      0.284539      1.044455
26   2      1.91263      6.47199      8.14404         0.735436     -0.806328      0.998946
27   2      2.34199      4.11830     10.27334        -0.970579      0.358525      0.448033
28   2      0.28570      6.37311     10.45654         0.425141     -0.744040     -0.032576
29   2     12.38858      4.24894     12.86704         0.872796     -1.132744      0.091051
30   2      2.48159      6.38525     12.43304        -1.244245     -0.366677      1.319427
31   2      2.49699      4.44209     15.01104        -0.674891     -0.292365     -0.528423
32   2     12.30064      6.06247     14.97634         0.336180     -0.345881      0.058198
33   2      0.00766      8.20713     35.58754        -0.857433     -0.097705     -0.285369
34   2      1.65201     10.32122     35.54994        -0.029555      1.656605     -0.152764
35   2      2.29344      8.30375      1.42504         0.404167     -0.683072      0.827008
36   2     12.09960     10.29745      1.83954         1.108168      0.237349     -0.777536
37   2      0.09522      8.27843      3.89604        -0.017644      0.491270      0.355047
38   2      2.03841     10.37536      3.90624        -0.580555     -0.492308     -0.026836
39   2      2.04153      8.37564      6.25964         0.091403      0.473729     -1.330512
40   2     12.41216     10.67758      6.27964        -0.052611     -0.123448     -0.249860
41   2     12.43325      8.51288      8.37924         0.091272     -0.429876     -0.497033
42   2      1.94100     10.24471      8.29324         0.211132      1.394513     -0.292630
43   2      2.11621      8.46932     10.45944        -1.161474     -1.286749      0.249812
44   2      0.03188     10.55424     10.80704        -1.783437     -1.014505     -1.365614
45   2     12.45438      8.22711     12.94894         0.280448     -0.020558      0.129201
46   2      1.80994     10.33596     12.62244         1.217852      0.014235      1.467814
47   2      2.03184      7.88949     14.84574        -0.493133      0.321039     -0.320311
48   2     12.35408     10.50331     14.72464         0.541517      0.172415      0.414523
49   2      3.91209      0.03834     35.61984         0.886040      0.013418     -0.396436
50   2      6.10782      2.33505     35.38124        -0.263171     -0.237121      0.493460
51   2      6.54740     12.24519      1.69344        -0.644067     -0.214450     -0.197798
52   2      4.14020      2.08431      2.21894         1.567751     -0.077121     -0.300948
53   2      4.02110     12.16427      4.23784         0.764038      0.332685     -0.341099
54   2      6.46206      1.81267      3.91874        -1.367655      0.658014      0.075457
55   2      6.49093     12.40148      6.22644        -0.651307     -0.558483      0.406447
56   2      4.27950      1.95782      5.86884         0.026902     -0.018502      0.455450
57   2      4.38336     12.47731      8.15844        -0.397810      0.666266      0.595614
58   2      6.33441      2.20918      8.29884        -0.735711     -0.593107      0.217302
59   2      6.32953      0.18924     10.24334         0.181546     -0.624014      0.528355
60   2      4.04977      1.98378     10.34854        -0.055714     -0.987323      0.196658
61   2      4.19867      0.03804     12.35614        -0.929783     -0.587511     -0.603077
62   2      6.18967      1.79996     12.69224         1.178049      0.578073     -0.669114
63   2      6.64493     12.26184     14.72274        -0.306852      0.327993      0.768901
64   2      4.30063      1.64226     14.66464        -0.446855      0.157316      0.416290
65   2      4.27431      4.66035     35.71904        -0.219056     -0.261012     -0.132892
66   2      6.75602      6.03139     35.10354        -0.261457      0.031872      0.141238
67   2      6.14149      4.12823      1.99204         0.316596      0.002761      0.125624
68   2      4.34774      6.63025      2.46274        -0.793913     -1.474558     -1.490648
69   2      4.21224      4.23090      4.17124        -0.307320     -0.356465     -0.201952
70   2      6.31360      6.09202      4.18284         0.858889      0.002879      0.692855
71   2      6.20991      4.19418      6.33444         0.723451      0.307227     -0.582410
72   2      4.20726      6.26458      6.15364        -0.056125      0.824804     -0.168198
73   2      4.26110      4.41821      8.16884        -0.420704     -0.263754      0.699514
74   2      6.67634      6.43679      8.31284        -1.503821     -0.296997     -0.656690
75   2      5.90144      3.90455     10.40944         0.802282      1.055364      0.659953
76   2      3.96526      6.35043     10.35064         1.702571     -0.071729     -1.094686
77   2      4.15276      3.80074     12.66944        -0.432633      0.644891     -0.110083
78   2      6.14430      5.96901     12.47224        -0.378005      0.359302     -0.596534
79   2      6.00064      4.12753     14.67644         0.042318     -0.225902      0.316935
80   2      4.29755      6.46875     14.62594         0.822878      0.018822     -0.060294
81   2      4.51226      7.39635     35.40854        -0.538776      0.765990      0.279635
82   2      6.34813     10.32693     35.35854         0.114481      0.205744      0.216981
83   2      6.25276      8.65491      1.84774         0.054733     -0.372811      0.046663
84   2      4.08767     10.42480      1.53944         0.138572      0.076277      0.248547
85   2      4.42155      8.72517      3.92624        -1.136149      0.836896      1.329243
86   2      6.43219     10.45217      4.26524         0.251264      0.589189     -0.884304
87   2      6.31019      8.46781      6.11794        -0.149983     -0.996416      0.647131
88   2      4.18265     10.41617      6.49794        -0.092756     -0.443620     -0.904386
89   2      4.28549      8.24333      8.30374         0.312938      0.027514      0.027805
90   2      6.38907     10.27650      8.56804         0.003466      0.299471      0.062127
91   2      6.20910      8.31348     10.73044         0.002934     -0.080206     -0.256953
92   2      3.75625     10.41928     10.36824         1.846250      1.721032     -0.082146
93   2      4.18641      8.79805     12.65144        -0.138089     -0.905355      0.222648
94   2      6.28772     10.63737     12.58594         0.383836     -0.208936     -0.853708
95   2      6.16265      8.78168     14.72394        -0.028657     -0.542438     -0.070314
96   2      4.05755     10.84523     14.53874         0.252899     -0.121246      0.399588
97   2      8.62648      0.27560     35.12464        -0.436842      0.267642      0.424161
98   2     10.62112      2.24816     35.70634        -1.046232     -0.315223     -0.551846
99   2     10.29886      0.07393      1.84864         0.296516     -0.428896     -0.962780
100   2      8.12430      1.98096      1.75984         0.536869      0.434457     -0.444516
101   2      8.33465     12.44591      3.96494         0.236845     -0.553869     -0.142769
102   2     10.42831      1.79380      3.87674         0.150456      1.442921      0.716166
103   2     10.12890      0.01417      6.06634         0.783664      0.237822      0.588804
104   2      7.99784      2.07158      6.23794         1.836137      0.635145     -0.502161
105   2      8.55665     12.42637      8.42524        -0.617010     -0.382919      0.301753
106   2     10.14484      2.13650      8.30694         0.555017      0.473999     -0.438917
107   2     10.53770     12.48393     10.69314        -1.524818      0.010448     -1.435960
108   2      8.45345      2.15094     10.53964        -0.137903     -0.704077      0.867250
109   2      8.58798     12.49362     12.76704        -0.580019      0.118135     -1.206511
110   2     10.24662      2.20673     13.11284         1.208615     -0.240112     -0.470529
111   2      9.98634     12.19396     15.04484         1.230536      1.403267      0.334482
112   2      8.10034      2.21238     14.72904        -0.801929     -0.636539      0.552203
113   2      8.37372      4.01775     35.43911         0.685067     -0.508849      0.401900
114   2     10.43893      6.23197      0.26886        -0.565967     -0.625292     -1.899566
115   2     10.29946      4.09593      1.99324         0.032906     -0.519378      0.189089
116   2      8.19411      6.17145      2.09634        -0.292546     -0.724903     -0.285170
117   2      8.54406      4.03083      4.14234        -0.529171     -0.068286      0.422609
118   2     10.72560      5.96798      4.05024        -1.239315      1.482593      0.147780
119   2     10.56367      4.27747      6.31134        -0.243511     -1.303730      0.115363
120   2      8.78366      6.30135      6.26934        -1.148495     -0.192031     -0.047787
121   2      8.29201      4.20898      8.77344         0.297099     -0.030609     -1.291870
122   2     10.53018      6.49844      8.52094         0.080007     -1.089407     -0.331875
123   2     10.66865      4.21657     10.48414        -0.748076      0.019496     -0.731575
124   2      8.30046      6.24354     10.47754         0.373669      0.607612      1.108657
125   2      8.37711      4.19743     12.52654        -0.484264      0.127316     -0.600877
126   2     10.71929      6.19566     12.25614        -1.326825      0.584707      1.223599
127   2      9.71666      4.34827     14.88434         1.546262      0.383125      0.698628
128   2      7.84799      6.23400     14.63634        -0.242821      0.647865      0.607330
129   2      8.34305      8.13323      0.09226         0.028461      0.446486     -0.841574
130   2     10.05109     10.50120     35.55924         0.907794     -0.005463     -0.930817
131   2     10.36303      8.08417      2.10834         0.595029      0.728009      0.660426
132   2      8.61587     10.19187      2.00354        -1.447522      0.495884      0.604822
133   2      8.34551      8.08851      4.04864        -0.233694      0.461632      0.479903
134   2     10.51233     10.59094      3.92684         0.118896     -0.242755      1.487775
135   2     10.49579      8.42357      5.94754         1.257910     -0.205323      0.023058
136   2      8.54310     10.18495      6.22544        -0.516636      0.946726      0.106205
137   2      8.50827      8.37378      8.37914         0.202439      0.696530      0.309570
138   2     10.53850     10.44435      8.47314        -0.253772      0.504922      0.118941
139   2     10.74726      8.32648     10.56514        -0.736179      1.089190      0.471217
140   2      8.45549     10.19147     10.76994         0.053170      0.298871     -0.238901
141   2      8.46866      8.04236     12.73214         0.030314      0.542414     -0.172915
142   2     10.35050     10.27890     12.99704        -0.407922     -0.469109     -0.955599
143   2     10.44284      8.03258     15.08314        -0.556609      0.316908     -0.468729
144   2      8.47395     10.14885     15.25814        -0.692326     -1.362327     -0.172870
