ITEM: TIMESTEP
0
ITEM: NUMBER OF ATOMS
144
ITEM: BOX BOUNDS pp pp pp
0.0 12.5220000000000002 
0.0 12.5220000000000002
0.0 35.7286733700000028
ITEM: ATOMS id type x y z fx fy fz
1   2     12.38677     12.35609     35.38344        -0.090755     -0.198612      0.334905
2   2      1.78435      1.82937     35.38214         0.681588     -0.239684     -0.155146
3   2      1.74705     12.41394      1.89234         1.445509     -0.212582     -0.665402
4   2      0.19516      2.14927      1.93194        -0.809277      0.063395      0.418680
5   2     12.48644     12.31758      3.98824         0.343735      0.885725      1.277900
6   2      1.98844      1.96176      4.01884        -0.151423      0.397450     -0.272506
7   2      2.10432      0.03112      6.01744         0.133490     -0.785870      0.977783
8   2      0.24028      1.95802      6.24404        -1.323726      0.244525      0.279435
9   2      0.32230     12.43085      8.54354        -0.300656      0.747567     -0.270939
10   2      2.23885      2.43969      8.24484         0.117794     -1.029340      0.764790
11   2      2.14191      0.11454     10.88134        -0.460547      0.193292     -0.722241
12   2     12.49190      2.33511     10.31304         0.393170     -0.337835      0.374348
13   2     12.39700      0.40887     12.37494         0.243832     -0.502992      0.140837
14   2      2.06681      2.27890     12.94084         1.175339     -0.502285     -0.825103
15   2      2.30583     12.43472     14.80454         0.070968      0.288614     -0.199538
16   2      0.15304      2.35723     14.73064        -0.790812     -0.546182      0.965506
17   2      0.18924      4.06011     35.38814        -1.145203     -0.500565      0.114779
18   2      1.61299      6.18747     35.36054         1.048319      1.136998      0.466361
19   2      1.95697      4.24884      1.90294         0.117345     -0.014310     -0.065045
20   2     12.36158      6.18318      2.16184         0.761273      0.693158     -0.144042
21   2     12.33815      4.10773      4.25264         0.232525     -0.242125      0.032849
22   2      1.89780      6.27689      4.39474         0.076471     -0.163078     -0.622549
23   2      2.18600      4.09199      6.05754        -0.777188      0.495130      0.554750
24   2     12.24880      6.24827      6.23654         0.476578     -0.390766      0.412321
25   2      0.15607      4.25900      8.32834        -0.662282      0.170503     -0.359750
26   2      1.98253      6.24935      8.56424         0.550756      0.262055     -0.518785
27   2      2.31993      4.24279     10.70014        -0.506222     -0.518819     -0.711054
28   2     12.49973      6.43132     10.39244        -0.314158     -0.058078      0.576370
29   2     12.45100      4.21708     12.73174         0.035764      0.236651     -1.097033
30   2      2.11836      6.19995     12.55334        -0.337383      0.631116      0.850925
31   2      2.08528      4.34469     14.87394         0.216987      0.229241     -0.210272
32   2     12.32380      6.24455     14.61134         0.248417      0.559688      0.064017
33   2      0.12828      8.53743     35.64591        -0.264109     -0.049580      0.013627
34   2      2.36915     10.34328     35.44904        -0.280801      0.551421      0.427731
35   2      2.07449      8.27783      1.99674        -0.103884     -0.134157      0.049755
36   2      0.00918     10.34739      2.13324         0.428969     -0.540741     -0.911804
37   2      0.10067      8.43631      4.13384        -0.377754     -0.510504      0.152151
38   2      2.26780     10.18926      4.25454        -0.032779      0.358212     -0.396779
39   2      1.95378      8.34404      6.41194         0.197314     -0.108627      0.326113
40   2     12.45675     10.51083      6.26884         0.472811     -0.096097      0.496100
41   2     12.12818      8.51454      8.37084         0.346461      0.068806      0.190265
42   2      1.99012     10.28933      8.55614        -0.191187     -0.432044     -1.032841
43   2      2.25614      8.36757     10.60894        -0.576209      0.076701      0.528103
44   2      0.13048     10.45628     10.71184        -0.070434      0.116061     -0.505262
45   2      0.03496      8.52637     12.73644         0.130733     -0.892714     -0.073803
46   2      2.27068     10.52196     12.73074         0.079763     -0.509905      0.083451
47   2      1.96899      8.57372     14.92454         0.909514     -1.110117     -0.337276
48   2      0.20536     10.47724     14.74114        -0.565839      1.131714      0.212087
49   2      4.31669      0.26774     35.56034        -1.049361     -1.183736     -0.665923
50   2      6.53263      1.74724     35.27374         0.044618      1.432690     -0.471993
51   2      6.26498      0.28300      1.78744         0.052579     -1.501052      0.973872
52   2      4.00950      1.97110      1.84884        -0.243445      0.869626      0.611061
53   2      3.96002      0.00926      3.96284         0.794906     -0.155574     -0.497534
54   2      6.17873      2.04017      4.02224         0.055607      0.201679     -0.451952
55   2      6.32029      0.00080      6.05334        -0.174087     -0.068207      0.147298
56   2      4.27814      2.19508      6.16024        -0.202748     -0.904209      0.229586
57   2      3.87381     12.46929      8.39214         0.085961      0.677842     -0.657904
58   2      6.09046      1.85180      8.41774        -0.825714      0.935367      0.052142
59   2      6.44375      0.02938     10.54964        -0.615913     -0.172843     -0.565383
60   2      4.09993      2.00021     10.57194         0.302831      0.158314     -0.331079
61   2      4.31209     12.48749     12.66684        -0.118749      0.670442      0.462690
62   2      6.49166      1.91529     12.52434        -1.474551      0.475752      0.899385
63   2      6.57390      0.19667     15.13064        -0.061079     -0.566031     -0.342206
64   2      4.71908      2.15532     14.94314        -0.347389      0.440210     -0.623998
65   2      3.96325      3.63056     35.29304         0.166766      0.095218      0.563154
66   2      6.33511      6.24002     35.55804        -0.693232      0.011241      0.015839
67   2      6.31745      4.00399      1.59534        -0.385468     -0.557725      0.101645
68   2      3.99525      6.02525      1.75654         0.037360     -0.129389     -0.394824
69   2      3.88371      4.00905      3.94704         0.724481      0.267453     -0.603154
70   2      5.99990      5.86835      3.67594         0.460808      0.285773      0.595851
71   2      6.18340      4.17631      5.94784         0.282484      0.359806      0.411484
72   2      4.09286      6.19771      6.42334        -0.057803      0.513298     -0.929146
73   2      4.34395      4.26168      8.28244         0.205365     -0.428132      0.864054
74   2      6.40031      6.17136      8.21934        -0.080452     -0.551933      0.421777
75   2      6.21372      4.04087     10.62044         0.255729      0.451198     -1.091444
76   2      4.20746      6.40299     10.64674         0.272867     -0.453189     -0.452383
77   2      4.40276      3.96771     12.63154        -0.278294      0.269113      1.141491
78   2      6.09749      6.43955     12.56234         0.923574     -0.512071      0.470391
79   2      6.46562      4.94201     15.09044        -0.549211     -0.195097     -0.567496
80   2      3.90698      6.41132     14.91454         0.217415     -0.008852     -0.265283
81   2      3.87969      8.04447     35.57584        -0.158170     -0.413693     -0.256712
82   2      5.98880      9.73807     35.49444         0.415896      0.597840     -0.089823
83   2      5.96069      8.19117      2.00674         0.415148     -0.168250     -0.006230
84   2      4.24146     10.49779      1.90384        -0.295937      0.370924     -0.105621
85   2      4.08227      8.00311      4.03684         0.143060      0.176650      0.570651
86   2      6.12745     10.34408      4.02324         0.106012      0.023627     -0.605434
87   2      6.40564      8.01123      6.00804        -1.161282      0.511391     -0.261830
88   2      4.32529     10.64188      6.07374        -0.412315     -0.609262      0.870275
89   2      4.12822      8.13077      8.42664         0.331597      0.814481     -0.263253
90   2      6.18265     10.47744      8.25914        -0.121849      0.033574     -0.002696
91   2      6.38647      8.41866     10.38864        -0.562651      0.128476      0.639634
92   2      4.02994     10.57370     10.29584         1.219516     -0.584926      1.083068
93   2      4.31113      8.47293     12.93564        -0.375545      0.375970     -0.227784
94   2      6.33379     10.69021     12.60904         0.524227     -0.731658      0.043368
95   2      6.34084      8.00646     15.00724        -0.420847     -0.263091     -0.219060
96   2      4.57162     10.52356     14.88844         0.074535      0.046255     -0.151437
97   2      8.82460      0.31753     35.35344         0.304969     -1.360419     -0.695398
98   2     10.56868      2.33979      0.27176         0.954501     -0.343628     -2.148672
99   2     10.58362     12.31587      1.97434        -0.512555      0.480406     -0.309936
100   2      8.51252      1.83121      1.75584        -1.181731      1.223104      1.545087
101   2      8.37348      0.06761      3.97964        -0.597994     -0.654618      0.034827
102   2     10.43673      1.86239      3.91074         0.497384      0.736571      0.550367
103   2     10.36824     12.38870      6.17134        -0.114294      1.117614      0.088522
104   2      8.18628      2.04784      6.27264         0.360571      0.755976     -1.201596
105   2      8.23060      0.30535      8.22774         0.748455     -1.524035      0.786259
106   2     10.45006      2.28735      8.30234         1.059829     -1.798714      0.030293
107   2     10.38288      0.04957     10.19724         0.778178      0.753147      1.333265
108   2      8.57841      2.07469     10.62444        -0.541710     -0.894526     -1.832804
109   2      8.54168      0.23888     12.89394        -0.072243     -3.207342     -0.787476
110   2     10.35832      2.14836     12.73574         2.501048      0.260935     -0.747142
111   2     10.97949      0.11183     14.77654        -0.286018     -0.177527     -0.073292
112   2      8.58355      2.09420     14.67764        -1.090829      0.791963      2.285738
113   2      8.25828      4.27479     35.32104         0.510122     -0.262405      0.344463
114   2     10.62032      6.41614     35.59684         0.040585     -0.129584      0.256280
115   2     10.49438      4.23692      2.04224        -0.407560      0.119864      0.413529
116   2      8.39578      6.10159      1.94624        -0.165273     -0.364820     -0.325690
117   2      8.35504      3.99466      4.06464        -0.115699     -0.340044     -0.360095
118   2     10.25283      6.20702      4.09404         0.740654      0.061912     -0.195385
119   2     10.30918      4.02917      6.32424         0.370158      0.563100     -1.001296
120   2      8.35339      6.15083      5.99114        -0.039710     -0.330084      0.791123
121   2      8.36050      3.94416      8.37584        -1.561694      1.031381      0.079428
122   2     10.22987      6.34798      8.36514        -0.035535      0.143822     -0.117825
123   2     10.38990      4.25819     10.28074         0.708055      0.597374      0.740644
124   2      8.28425      6.18266     10.65164        -0.278062      0.215269     -0.401190
125   2      8.39220      3.92409     12.42184        -0.822967      2.462242      1.114872
126   2     10.45297      6.36550     12.46564         0.192338     -0.199391      0.202096
127   2     10.20701      4.26951     14.54144         0.674208      0.369946      0.557046
128   2      8.67074      6.48190     14.67104        -0.050661      0.697541     -0.069876
129   2      8.30970      8.11275      0.01684         0.475854      0.591170     -0.129774
130   2     10.31681     10.39020      0.04934         0.025753     -0.177341     -0.677267
131   2     10.48315      8.49519      2.09754        -0.151388     -0.762323     -0.220283
132   2      8.17404     10.34729      1.92264        -0.392498      0.446900     -0.099593
133   2      8.24077      8.18432      3.77554        -0.201255      0.327435      0.605652
134   2     10.40434     10.46901      4.20974        -0.578245     -0.605556     -0.385053
135   2     10.49218      8.32383      6.05644        -0.928790      0.368239      0.310838
136   2      8.12268     10.24411      5.94154         0.535320      0.092498      0.562856
137   2      8.10080      8.31173      8.27914         1.137481      0.506859     -0.313673
138   2     10.26236     10.76722      8.36054         0.097371     -1.738549     -0.991358
139   2     10.33124      8.44965     10.63634         0.248321      0.203606     -0.954189
140   2      8.33754     10.59997     10.38324         0.050790     -0.537225      0.295231
141   2      8.44493      8.61491     12.60894        -0.565570     -0.123282      0.443691
142   2     10.58483     10.59245     12.57254        -0.540516      0.637566      0.210546
143   2     10.40655      8.95221     14.89354        -0.177934     -0.471784     -0.301247
144   2      7.89175     10.19909     15.02654         0.148738      0.501058     -0.298451
