ITEM: TIMESTEP
0
ITEM: NUMBER OF ATOMS
180
ITEM: BOX BOUNDS pp pp pp
0.0 15.3362549999999995 
0.0 14.7573100000000004
0.0 29.7984842388000004
ITEM: ATOMS id type x y z fx fy fz
1   2     15.31366     14.57654     29.55254         0.310283     -0.143089      0.225258
2   2      2.37614      1.61041     29.07564         0.597124     -1.973900     -0.021660
3   2      1.92887     14.60433      2.17251        -1.005855      0.299991      0.159468
4   2      4.28573      1.32977      2.65365         0.158116      0.685447     -0.435155
5   2      0.84166      1.71385      5.07309        -0.406930     -0.751119      0.018272
6   2      3.09925      0.20380      4.83158         0.434777     -0.598676      0.279398
7   2      0.37516     14.63413      7.35833        -0.948777     -0.201080     -0.366556
8   2      2.49491      1.52970      7.47030         0.484091      0.393913      0.075551
9   2      1.68180      0.07413      9.91934         0.665793      1.692520     -0.034310
10   2      4.46259      1.72190      9.54339        -1.765325      0.082900      0.402612
11   2      0.81983      1.79998     12.35064         0.329223      0.228708      0.411107
12   2      3.58280     14.65155     12.38124        -0.918538      3.912654      0.142719
13   2     15.19697      2.49604     29.25564        -0.677492     -0.434481     -0.097662
14   2      2.58812      4.01542      0.12015        -0.177652      1.741685      0.145583
15   2      1.66638      2.91735      2.53338        -0.167671     -0.219932      0.159456
16   2      4.35908      4.21741      2.40971        -1.730028     -0.525253     -1.401823
17   2      0.52892      4.38113      4.82069         1.482277      0.146440      0.118327
18   2      3.47306      3.05554      4.96141        -1.084616     -1.093356      0.113440
19   2     15.00377      3.13369      7.41290         1.176972     -0.073401      0.325515
20   2      2.60621      4.41150      7.32085        -1.038564      0.085689      0.947810
21   2      1.55530      3.10247      9.97324         0.654432      0.018046     -0.507880
22   2      4.13988      4.60620      9.85073        -0.277835     -0.096443     -0.641306
23   2      1.32250      5.10646     12.36344        -0.573375     -1.451751      0.894383
24   2      3.50105      3.32424     12.69674        -0.480884      0.285178     -0.362515
25   2     15.18721      4.93947      0.25744         1.002853      0.670660     -1.272807
26   2      1.99661      6.75303     29.14764         0.441946      0.050247      0.504647
27   2      2.03196      5.92075      2.36098        -0.547318     -0.616636     -0.355744
28   2      4.21085      7.41476      1.94423        -0.247996      0.692745     -0.011417
29   2      0.77835      7.07717      4.56147        -0.791812      1.077256      0.158431
30   2      3.20144      5.79045      5.02543        -0.448292      0.038202     -0.725592
31   2      0.07841      6.09244      7.56263         0.275430     -0.990235     -0.244673
32   2      2.58593      7.63346      7.53575         0.276671     -0.299673      0.037194
33   2      1.75225      6.04002      9.92344         0.583752     -0.070545     -1.412024
34   2      4.31626      7.68383      9.96364        -0.084286     -0.111452     -0.201399
35   2      1.81110      7.67766     12.13354        -0.673434      0.964949     -0.377485
36   2      3.99207      6.36715     13.19284        -1.894108      0.009086      0.746506
37   2      0.15098      8.81406     29.30494         0.007019      0.247203      0.559236
38   2      2.79427     10.20397     29.43314        -0.060870     -0.689644     -1.117216
39   2      1.75664      8.91614      2.33576        -0.086215     -0.471793     -0.683106
40   2      4.52963     10.24948      1.76405         0.047299      0.308833      0.337442
41   2      0.91798     10.11538      4.67109        -0.529954      0.030775      0.207492
42   2      3.36639      8.53928      4.60418        -0.185403      0.723024      0.094234
43   2      0.03342      8.77850      7.12197        -0.105332      0.561673      0.139102
44   2      2.56994     10.40120      7.03746        -0.218823     -0.248826     -1.105117
45   2      1.54367      9.36704      9.54609         0.279122      0.043410      0.395649
46   2      4.22819     10.87488      9.02740        -0.479080     -2.017268      0.816502
47   2      1.18960     11.01895     11.87494         0.742623     -1.263983     -0.112279
48   2      3.63191      9.43407     12.79624        -0.105335      1.077275     -0.275469
49   2      0.14142     11.86644     29.63984        -1.178448     -0.917283     -0.662438
50   2      2.49286     13.36178     29.35484         0.694813      0.531232     -0.261419
51   2      1.99659     11.64707      1.67441         0.148277      0.481428      2.341086
52   2      4.34499     13.33148      2.02391         0.436184     -0.729401      0.347881
53   2      1.03587     12.93663      4.53409        -0.312081      0.441434      0.307030
54   2      3.46726     11.71885      4.41132         0.735877     -0.298678     -0.087738
55   2      0.02816     11.76868      7.20650        -0.551034     -0.113390     -1.129136
56   2      2.78249     13.22446      6.98601        -0.177683      0.444016     -0.277627
57   2      1.62061     12.29472      9.31890         0.560391     -1.393202      0.515718
58   2      4.35049     13.42783      9.61668        -1.003255      1.676753      0.090411
59   2      1.01400     13.72895     12.36874        -0.714082     -0.104008      0.234415
60   2      3.57893     12.20471     12.17124        -0.493069     -3.495518     -0.037891
61   2      4.93113      0.34104     29.72404        -0.542232     -0.512329     -0.471171
62   2      7.48202      1.34618     29.17064         0.564787      0.381126      0.075837
63   2      6.87762      0.20042      1.98866        -0.201199     -0.720694      0.709277
64   2      9.54390      1.10160      1.56109        -0.222310      0.328278      0.166096
65   2      6.07270      1.34249      4.85881        -0.263654      0.263621     -0.421774
66   2      8.64212      0.24052      4.27814        -0.436700     -0.964244     -0.122545
67   2      5.32961      0.46806      7.38585        -0.165128     -0.759967     -0.739480
68   2      7.86837      1.61151      6.98959        -0.145869      0.413446      0.151003
69   2      6.76279      0.01886      9.98344         0.293815      0.409875     -0.347245
70   2      9.23977      1.50286      9.68915         0.620724     -0.416929     -0.344983
71   2      5.58384      1.78387     11.98064         0.798779     -0.049794      0.617746
72   2      8.47826     14.67893     12.21584        -0.979080      1.002912      0.592281
73   2      5.11043      3.04049     29.50604        -0.052719      0.292579     -0.192192
74   2      7.54637      4.25474     29.09474         0.314789      0.406119      0.249813
75   2      7.04064      2.84387      1.96828        -0.128966      0.899805      0.212760
76   2      9.23668      4.54512      1.72778        -0.455737     -1.020930      1.236302
77   2      5.79476      4.19375      4.49687         2.114059      0.392762      0.916025
78   2      8.57566      3.00997      4.47077         0.145910     -0.864103     -1.076581
79   2      5.18947      3.45823      7.32422        -0.169863     -0.765765     -0.158245
80   2      7.63667      4.40901      6.58502        -0.521148      0.668757      1.967077
81   2      6.90729      2.92802      9.45062         0.160468     -0.754472      0.163008
82   2      9.85513      4.31924      9.64575        -0.369205     -0.570314      1.305071
83   2      5.78283      5.18398     11.86334         1.958790     -0.888241     -0.080959
84   2      8.20042      2.99963     11.91464         0.261654      0.317702      0.393599
85   2      4.96580      5.94262     28.86164        -0.007443     -0.346595      0.428137
86   2      7.73722      7.47668     29.05214        -0.301314     -0.921192      0.333830
87   2      6.29546      5.81532      1.63314         1.821434     -0.025928     -0.282236
88   2      9.15381      7.23877      2.33016        -0.191626     -0.404690     -0.614131
89   2      5.70002      7.00879      4.64756         1.029470      0.197940     -1.402037
90   2      8.55178      5.67950      4.50812        -0.178496      1.202576     -0.780247
91   2      4.94226      6.20597      7.07919         0.411505      0.036259      1.593185
92   2      7.55427      7.43160      6.95746         0.518153     -0.704996      0.173873
93   2      6.99820      5.49303      9.38592         0.192636      1.765810     -0.531009
94   2      9.46286      7.01937     10.29514        -0.963061     -0.070219      0.176263
95   2      5.88923      8.08451     12.59804        -1.086548     -0.658679     -0.170496
96   2      8.80337      5.95983     12.91214        -1.004246      0.278877     -0.545265
97   2      5.00343      8.65800     28.77704         0.345214      0.283486      0.546634
98   2      7.61586     10.13622     29.31124        -0.180331      0.710309      0.379885
99   2      6.74479      8.63535      2.10884        -0.099992     -0.633883     -1.122473
100   2      9.06829     10.26297      2.39682         0.279142     -0.242275     -0.517287
101   2      6.16940     10.34049      4.12141        -1.449106      1.044517      0.954353
102   2      8.21141      8.70468      4.47138         0.905174     -0.764418      1.343405
103   2      5.34411      9.08162      6.51812        -1.041611      0.385963      0.373012
104   2      7.74916     10.39626      6.78504         0.325060      0.292076     -0.009586
105   2      6.62493      9.05057      9.05620        -0.117702     -0.294334      0.469892
106   2      8.89168     10.59238     10.04454         0.321438     -0.211172      0.476037
107   2      6.19770     10.80441     11.31174        -0.662190     -1.717246      2.594389
108   2      8.21608      8.79090     12.24274         1.888521      0.328850     -0.444843
109   2      5.31114     12.07927     29.38424         0.045192     -0.226618      0.264719
110   2      7.91085     13.35272     29.76014        -0.247392     -0.624307     -0.627523
111   2      7.03670     12.09648      2.26092        -0.559988      0.053448     -0.859094
112   2      9.80423     12.89515      2.17159         0.103881      0.955691      0.232149
113   2      6.02229     13.35514      4.49218        -0.156782      0.081011      0.052713
114   2      8.70512     11.97960      4.64811         0.275129      0.271295      0.660709
115   2      5.35011     12.33418      6.92638        -0.085227     -0.205095     -1.412494
116   2      7.86780     13.72331      7.40330        -1.276546     -0.639587     -0.337038
117   2      6.65389     12.02541      9.19616         2.003338      0.933047     -1.073796
118   2      9.31907     13.32785     10.03994        -0.108874     -0.237516     -0.669760
119   2      5.88732     13.41746     12.31754         2.194488      0.037854      0.289347
120   2      8.60717     12.11692     12.70094        -0.319788     -0.998694     -0.220463
121   2     10.33220     14.33693     29.09674         0.477167      0.240838      0.247315
122   2     12.82212      0.91693     29.64234        -0.510161      0.880395     -0.177951
123   2     11.98892     14.73270      2.36881         0.139622     -0.368035     -0.204897
124   2     14.54066      1.34103      2.34618         0.392029      0.083162     -0.046665
125   2     11.01931      1.41514      4.66869         0.637698      0.378596      0.475671
126   2     13.63055     14.67037      4.77874         1.067424      0.650676      0.626303
127   2     10.22860      0.01380      6.96099         1.372114      0.573792      0.273263
128   2     13.11519      1.07736      7.82154        -0.278094      0.230766     -0.814005
129   2     11.74337     14.53184     10.10144         0.335472     -0.332083     -0.664917
130   2     14.52264      1.50245     10.14184         0.742127      0.497452     -0.570844
131   2     10.69986      1.31441     12.31354         1.032504      0.827778      0.081623
132   2     13.59461      0.07589     12.19894        -0.188771     -0.268358      1.037012
133   2     10.35686      2.71848     29.11034        -0.309654     -0.256219      0.397982
134   2     12.63104      4.24060     29.37134        -0.005787     -0.967458      0.227281
135   2     11.73633      2.82120      2.39374         0.019154      0.170981     -0.901985
136   2     14.09406      4.51373      2.61475        -0.009135     -0.633659      0.416870
137   2     11.14365      4.30980      4.69814         0.000925      0.182263      0.667835
138   2     13.61344      2.82465      4.66837        -0.695226     -0.824334      0.763818
139   2     10.08131      3.18385      7.18405        -0.190029     -1.164760     -0.660183
140   2     12.51506      4.02623      7.48789         0.295796      0.715457      0.543911
141   2     12.01480      2.47385      9.96484        -0.519262      1.310131      0.150795
142   2     14.42690      4.41697     10.28764        -0.158812      0.238539     -0.187650
143   2     10.81816      4.26017     12.50624         0.596567     -0.690114     -0.243958
144   2     13.45074      3.05387     12.89804        -0.148114     -0.192917     -0.769416
145   2     10.11413      5.62897     29.34804         0.127599      0.651135     -1.112580
146   2     12.63537      6.91078     29.64744         0.083384      0.916191      0.341218
147   2     11.74267      5.82672      2.47167        -0.235021      0.520033     -0.541257
148   2     14.73668      6.99589      1.77596        -0.037492      2.059600      0.571377
149   2     10.85269      7.19217      4.85320         0.365167      0.111493      0.205055
150   2     13.64616      5.67823      5.50744        -1.086675      0.741526     -0.192073
151   2     10.02463      5.94084      7.54644         0.221646      0.996980     -0.819406
152   2     12.35559      7.70975      7.23851        -0.527343     -1.009265      1.261306
153   2     12.09564      6.07448      9.94734         0.853583     -0.761741     -0.810915
154   2     14.82809      7.49325      9.84037        -1.107853      0.352455      0.603577
155   2     11.26889      7.12815     12.34804        -0.039220      0.609380      0.885575
156   2     13.65512      5.87710     12.64354         0.363722     -0.324181     -0.385106
157   2     10.25085      8.56984      0.02424        -0.638513     -0.509813     -1.792789
158   2     12.96136     10.07893     29.40384        -0.034448     -0.243990      0.519073
159   2     11.39896      8.80106      2.30210         1.987688      0.277112      1.689838
160   2     14.48761     10.06554      2.18175         0.489767     -0.625182      0.125477
161   2     10.85944      9.98207      5.07317         0.137717      0.415656      0.071815
162   2     13.53511      8.62383      5.08488         0.290579      0.578482     -1.569878
163   2      9.75816      8.73933      8.26472         0.388615      0.250513     -0.866122
164   2     12.63345     10.41338      7.37849        -0.452037      0.238663     -0.704243
165   2     12.18867      8.80177     10.07534        -0.065494     -0.041819     -0.108988
166   2     14.24568     10.65822      9.56799         1.820972     -1.123970      0.346965
167   2     10.52680     10.12132     12.43464         0.065290      0.209311     -0.251576
168   2     12.96800      9.28500     12.95134         0.661792     -0.239504     -0.333517
169   2     10.30380     11.29168     29.72434         0.048803      0.478401     -0.273904
170   2     12.78044     12.89042     29.74744        -0.010269      0.012371     -0.212380
171   2     12.27917     11.56733      2.40443        -1.154358     -0.243537     -0.253291
172   2     14.53402     13.16134      2.48931         0.537448      0.342378     -0.685500
173   2     11.35265     13.27611      4.78714        -1.335267     -0.640831      0.057965
174   2     13.61555     11.71210      4.75147         0.704451     -0.836008      0.942527
175   2      9.90725     11.97386      7.60989         0.948059     -0.734639     -0.268187
176   2     12.81125     13.21449      7.35019        -0.179529     -0.338721     -0.098825
177   2     11.83237     11.55615      9.87974        -1.444955      0.698352     -0.143996
178   2     14.43505     13.39782      9.81153        -0.274655      0.393475     -0.174107
179   2     11.35557     12.81722     12.29934         0.077432      0.309918      0.422411
180   2     14.06195     11.76244     12.20574        -1.231510      0.556761      0.331357
