ITEM: TIMESTEP
0
ITEM: NUMBER OF ATOMS
180
ITEM: BOX BOUNDS pp pp pp
0.0 15.3362549999999995 
0.0 14.7573100000000004
0.0 29.7984842388000004
ITEM: ATOMS id type x y z fx fy fz
1   2     15.12861     14.67772      0.00846         0.315968     -0.409908     -0.239575
2   2      2.51614      1.44647     29.60324        -1.287915     -1.362917     -0.166168
3   2      1.59967      0.02290      2.32643        -0.071549      0.004860      0.348691
4   2      4.11516      1.26504      2.41431         0.037230      0.670933      0.550025
5   2      0.94129      1.81799      4.78076         0.068787     -0.809970     -0.424889
6   2      3.27400      0.10304      4.90584         0.095954     -0.348835     -0.911841
7   2      0.44696      0.37559      7.20564        -1.215011      0.040774      0.077048
8   2      2.89920      1.63237      7.16487        -0.302465      0.872633      0.208739
9   2      1.82040      0.18311      9.69171         0.127527     -0.783749      0.116274
10   2      4.30476      1.79472      9.62149         0.233958     -0.527280     -0.034993
11   2      0.60144      1.38519     12.25724         0.104175      0.632783      0.143912
12   2      3.35670      0.67457     12.11424        -0.164539     -0.703165     -0.028243
13   2      0.09525      2.68090     29.73794        -0.346946      0.120828     -0.434380
14   2      2.73883      4.24181     29.34700        -0.339173      1.038634      0.397567
15   2      1.78773      3.02646      2.06706         0.167474      0.369096      0.843916
16   2      4.42391      4.42416      2.41137        -0.130915      0.158437     -1.127007
17   2      0.71588      4.50649      4.44023         0.494068      0.470773      0.158365
18   2      3.40033      3.27344      4.67647        -0.220719     -1.869050      0.352296
19   2     15.29322      3.20783      7.09121        -0.553736     -0.327703      0.330235
20   2      2.32069      4.54875      7.38212         0.244375      0.380289     -0.549622
21   2      1.66876      2.93818      9.63597         0.015368      0.848480      0.145570
22   2      4.14811      4.60044      9.44680        -0.172205      0.753285      0.463461
23   2      0.88152      4.48958     12.49874        -0.079993     -0.019286     -0.692220
24   2      3.63462      3.40831     11.88314        -0.206225     -0.043216      0.651149
25   2      0.08449      5.72443     29.34274         1.710671      0.364094     -0.090123
26   2      2.85229      7.53697     28.73704        -0.503360      0.075293      0.778440
27   2      1.69734      6.13007      1.79196         0.246548     -0.245080      0.238269
28   2      4.19848      7.48969      2.38438        -0.291215     -0.898528     -0.677918
29   2      0.91206      7.51503      4.45957         0.267947     -0.185261      0.374387
30   2      3.28612      5.85720      4.71710        -0.144901      1.539096     -0.131780
31   2     15.09056      6.00733      7.34912         0.262720      0.395854     -0.784935
32   2      2.38752      7.45319      6.93197        -0.257202      0.234022      0.448944
33   2      1.59352      6.41391      9.67286         0.503350     -0.800464     -0.540033
34   2      4.08762      7.67401      9.97544         0.089080      0.231530     -0.387373
35   2      0.92138      7.51490     12.09434        -0.209451      0.262403      0.288735
36   2      3.43333      6.07658     12.25414        -0.127745      0.423808     -0.051141
37   2      0.16229      8.57658     29.60284         0.470852      0.214933      0.032470
38   2      2.96157     10.24666      0.14946        -0.654113     -0.118821     -1.608900
39   2      1.85013      9.01963      2.32573         0.005319     -0.709981      0.174902
40   2      4.50744     10.16602      2.26772         1.082923      0.681577      0.986672
41   2      0.58745     10.46160      5.02109         1.425283     -0.232327     -0.958360
42   2      3.55616      9.07138      4.87052        -0.754640     -0.886672     -0.326590
43   2     15.13274      9.09115      7.23101         0.435020     -0.495559      0.880001
44   2      2.32754     10.49845      7.21443         0.210563     -0.744425      0.747637
45   2      1.73417      9.12875      9.69172        -0.528908      0.081525     -0.119950
46   2      4.09037     10.68239      9.97274         0.768293     -1.657079     -0.482803
47   2      0.62570     10.75608     11.92324         0.018915     -0.928270      0.335945
48   2      3.47291      9.19637     12.60034        -0.040971     -0.136041     -0.643123
49   2      0.19098     11.76737      0.00296        -0.869869     -0.619385     -0.510386
50   2      2.43204     13.19758      0.04176         0.716542      0.694193     -0.664495
51   2      1.81145     11.81177      2.33686        -0.421010     -0.135395      1.088392
52   2      4.17446     13.10385      2.39095         0.728868     -0.025674      0.614910
53   2      0.63390     13.40870      4.67801         1.647007     -0.521127     -0.372759
54   2      3.21343     11.77805      4.98036        -0.033879      0.995953     -1.404337
55   2     15.25295     12.23401      7.17351        -0.109009     -0.248841      0.459409
56   2      2.54954     13.39803      7.25001         0.393863     -0.253565      0.364215
57   2      1.64361     11.88043      9.62461        -0.573044      1.050483     -0.355861
58   2      4.31175     13.33681      9.68604        -0.103659      1.233012     -0.870805
59   2      0.87933     13.44373     12.10784        -0.117764      0.219673     -0.132710
60   2      3.44916     12.30629     12.06514        -0.389336     -0.068328      1.044857
61   2      4.89437     14.63886      0.08426         0.504083     -0.979529     -0.463130
62   2      7.77221      0.79861      0.00786        -0.229212      0.139872     -0.213040
63   2      6.61600     14.72432      2.44933         0.432146     -0.304455      0.087193
64   2      9.23150      1.25578      2.59244         0.173720      0.271144      0.193754
65   2      5.86457      1.64665      4.74725        -0.134737     -0.188715     -0.130320
66   2      8.40277     14.61571      5.01455         0.247001      0.146477     -0.109429
67   2      5.09346     14.73803      7.09433         0.061035     -0.028280      0.218031
68   2      7.52646      1.58056      7.16948         0.124017     -0.580739      0.381854
69   2      6.64043      0.22318      9.57485         0.231209      0.092509      0.472633
70   2      9.21512      1.50564      9.52951         0.359805     -0.401004      0.183852
71   2      5.98329      1.70383     12.11494         0.265578     -0.072181     -0.150030
72   2      8.37203      0.08967     12.29394         0.475548     -0.048287     -0.320082
73   2      4.83908      2.52702     29.66854         2.159269      1.585463      0.123971
74   2      7.66833      3.81057     29.19744         0.064330      0.315783      0.224929
75   2      7.07495      2.82867      1.87703        -0.703733      0.348819      0.553426
76   2      9.47710      4.36217      2.55261        -0.806351     -0.229228     -0.737371
77   2      5.95805      4.53137      4.73599         0.506781     -0.107749      0.138336
78   2      8.36403      2.97311      4.96224         0.334232     -0.274620     -0.892056
79   2      5.23051      3.25572      7.29889        -0.535931     -0.570409     -0.491394
80   2      7.66116      4.42047      7.31134         0.012617      0.737680      0.202531
81   2      6.94827      3.27164      9.86168        -0.584653     -0.243960     -0.381760
82   2      9.44816      4.42028      9.51727        -0.568451     -0.558105      1.321762
83   2      6.29791      4.74787     12.16044        -0.972038     -0.314097      0.097556
84   2      8.84483      2.93750     11.97504        -0.635447     -0.181705      0.381239
85   2      5.06265      6.14650     29.49334        -0.083478     -1.358531      0.352368
86   2      7.85796      6.97537     29.43824         0.057154     -0.217287     -0.394323
87   2      6.89552      5.73640      2.03821         0.019095     -0.266423      0.105564
88   2      9.56303      7.15866      2.05243        -0.041503     -0.178685      0.354608
89   2      5.96987      7.26629      4.35855         0.729546      0.240802      0.739750
90   2      8.68078      5.82818      5.08185        -0.674840      0.544410     -0.691555
91   2      4.95061      6.09136      7.08150         0.010806     -0.308643      0.021113
92   2      7.55203      7.41213      7.17189         0.310689     -0.589593     -0.033103
93   2      6.44255      6.16930      9.61956         0.633212     -0.663575     -0.220510
94   2      9.28766      7.20456      9.91864        -0.463485      0.896022     -0.098976
95   2      6.03629      7.59345     12.10494        -0.113302      0.160474      0.422280
96   2      8.73948      5.74494     12.36954         0.568124      0.812331     -0.167083
97   2      5.60295      8.72772     29.47654        -0.706304      1.059253     -0.397552
98   2      8.01261     10.01720     28.90984         0.065331     -0.206417      0.570976
99   2      7.23517      8.60795      1.84951        -0.475076      0.475901      0.848186
100   2      9.43716     10.32247      2.15397         0.274903     -0.747735      0.006230
101   2      6.02554     10.19290      4.80680         0.140155      0.368309     -0.678636
102   2      8.48868      8.76212      4.50028        -0.893250     -0.737193     -0.177891
103   2      5.19204      8.79830      7.16163        -0.811819      0.478989      0.422125
104   2      7.68177     10.28029      7.00972         0.083553      0.188762      0.969298
105   2      6.71861      8.85753      9.58810         0.080527      0.696402      0.098301
106   2      9.07574     10.42516      9.66197         0.500301     -0.670892      0.096784
107   2      5.92234     10.63366     12.58234        -0.303433     -0.679329     -0.316293
108   2      8.45355      8.99754     12.31304        -0.363938     -1.084899     -0.258596
109   2      5.28000     11.83301     29.69146         0.442602     -0.130143      0.215288
110   2      8.10880     12.65916     29.73004        -0.735394      0.561477      0.196414
111   2      7.04835     11.54407      2.52714        -0.856847      0.523541     -0.394732
112   2      9.49448     13.20251      2.51218        -0.913981     -0.417867      0.150755
113   2      5.97696     13.25688      4.73858        -0.417757     -0.344920      0.092075
114   2      8.62783     11.71079      4.84427        -0.229565      0.745853      0.104377
115   2      4.97680     11.64817      7.08030         0.409784      0.278330      0.699106
116   2      7.41099     13.32725      7.48002         0.794896     -0.326542     -0.746503
117   2      6.71795     11.74543      9.62505        -0.373794     -0.062320      0.038036
118   2      9.30353     13.43568      9.76761        -0.336263      0.124084      0.263088
119   2      6.09929     13.30812     11.91714         0.126753      0.520438      0.384723
120   2      8.48635     11.67848     12.40294         0.309425      1.170197     -0.296810
121   2     10.36200     14.58429      0.14736        -0.825077      0.177746     -1.300316
122   2     12.78487      1.27735     29.31354        -0.247964      0.405288      0.482176
123   2     11.79452     14.61430      2.34619         1.421557      0.095287      1.157579
124   2     14.35472      1.14573      2.52005        -0.109229      0.354291     -0.002820
125   2     11.07599      1.43712      4.88080        -0.446584     -0.347338     -0.328574
126   2     13.68008     14.52719      5.01629        -0.929309      0.710707     -0.545570
127   2     10.34689     14.73554      7.15242        -0.838489      0.140895      0.494386
128   2     12.84658      1.42359      7.10946         0.365937      0.707699      1.114545
129   2     11.87405      0.12970      9.75835         0.074521      0.395492     -0.110811
130   2     14.66137      1.53884      9.77768        -1.048560     -0.069748     -0.550629
131   2     11.12029      1.51027     12.54744        -0.138421     -0.042484     -0.258606
132   2     13.40403     14.63328     12.34094         1.153077      1.005199     -0.174394
133   2     10.27451      2.70129     29.51324         0.170730     -0.119665      0.240458
134   2     13.27144      4.29370     29.54544        -2.155728     -0.723695     -0.195962
135   2     11.76341      2.67197      2.39081         0.306163      0.240436     -0.372529
136   2     14.37626      4.14388      2.27120         0.281203     -0.069575      0.218346
137   2     10.95015      4.28745      4.79135         1.111277      0.137877      0.632817
138   2     13.57014      2.76321      4.75604         0.109103      0.646319     -0.147660
139   2     10.24491      2.91335      7.35276         0.248141     -0.511539     -0.592488
140   2     12.59016      4.50756      7.19209         1.007841     -0.218968     -0.405700
141   2     12.20105      3.16144      9.67462         0.197295     -0.939418     -0.219512
142   2     14.69148      4.78794      9.76369        -0.221206     -1.197581      0.419940
143   2     11.20909      4.34912     12.15844        -0.203953      0.329422      0.301843
144   2     13.54900      2.90790     12.22324         0.688980     -0.067531     -0.021221
145   2     10.24853      5.47787     29.60234         0.293176     -0.089986     -0.022992
146   2     13.08257      7.09701     29.26024        -0.822092      0.450980      0.459056
147   2     12.04470      5.62592      2.28979        -0.012357      0.197389     -0.055461
148   2     14.46465      7.41731      2.25628         0.389257     -0.644146     -0.165295
149   2     11.00572      7.37252      4.46269         0.485134     -0.814046      0.399319
150   2     13.79385      6.02981      4.71535        -0.700913     -0.505429      0.141199
151   2     10.24581      5.83216      7.40378        -0.253369      1.034665     -0.946283
152   2     12.67765      7.56201      7.07039        -0.299418     -0.730340      0.315636
153   2     11.73099      5.87545      9.75065         1.197858      0.711933      0.276695
154   2     14.27417      7.52425      9.65083         0.633438     -0.262266      0.047143
155   2     11.17073      7.41183     12.35684        -0.168121     -0.326640     -0.313294
156   2     13.56179      5.86137     12.16384         0.438821      0.271467     -0.038905
157   2     10.39945      8.41353     29.47534         0.297201      0.227583     -0.204344
158   2     13.01643     10.08628      0.03429         0.039146      0.169951     -0.509606
159   2     12.04540      8.60514      2.14259        -0.516732      0.228956      0.187981
160   2     14.74846     10.23116      2.29699        -0.601191     -0.049113      0.205380
161   2     10.79108     10.05598      4.84263         1.444614      0.963607     -0.097730
162   2     13.64525      8.78803      4.86483        -0.357809     -0.022306     -1.092882
163   2     10.05876      8.64189      7.15410         0.091373      0.284149      0.442898
164   2     12.62389     10.52573      7.05144        -0.251153     -0.008909      0.444273
165   2     11.87385      8.75785      9.49371        -1.833024     -0.053942      0.053406
166   2     14.02268     10.32458      9.59398         1.285313      1.368717     -0.518775
167   2     10.88098     10.14065     11.92044         0.613628      0.576605      0.042948
168   2     13.61011      9.03705     11.95254        -0.035659     -0.451870      0.874845
169   2     10.47395     11.38903     29.54724         0.152031     -0.560709     -0.240619
170   2     12.59197     13.05895     29.64328         1.092525      0.045858      0.080286
171   2     11.86358     11.53562      2.41351         0.362252      0.139729     -0.169332
172   2     14.34404     13.04304      2.25343        -0.168222      0.288870      0.356845
173   2     11.19912     13.13627      4.87367        -0.346006     -0.107695      0.029085
174   2     13.54800     11.52344      4.63313        -0.796039      1.097590     -0.154843
175   2     10.07144     11.86110      7.47861        -0.403032      0.008029     -1.309497
176   2     12.74178     13.40125      7.35680         0.010178     -0.613058      0.375934
177   2     11.61642     11.83493      9.64603         0.662581      0.108038      0.735057
178   2     14.37344     13.34789      9.70100         0.227477      0.045972     -0.038204
179   2     11.00582     13.51018     12.31814        -1.237991     -0.766423     -0.310367
180   2     13.36950     11.94547     12.02244        -0.095010     -0.604944     -0.008307
