ITEM: TIMESTEP
0
ITEM: NUMBER OF ATOMS
180
ITEM: BOX BOUNDS pp pp pp
0.0 15.3362549999999995 
0.0 14.7573100000000004
0.0 29.7984842388000004
ITEM: ATOMS id type x y z fx fy fz
1   2     15.26845     14.39432     29.71984         0.251720      0.503860     -0.230201
2   2      2.55166      1.46602     29.55694        -0.155459     -0.360702      0.041430
3   2      1.69902     14.56909      2.35149        -0.127287      0.066031      0.129391
4   2      4.17719      1.24874      2.30474         0.316385     -0.170986      0.251438
5   2      0.89776      1.43104      4.78159        -0.208161      0.051102     -0.087402
6   2      3.33446     14.73470      4.94565         0.142817     -0.248010     -0.481363
7   2     15.27409     14.73239      7.09395        -0.347049      0.100518      0.242379
8   2      2.45976      1.63793      7.15145         0.217417     -0.103111      0.427925
9   2      1.73811      0.01897      9.49934        -0.244700      0.318723      0.503098
10   2      4.17784      1.56360      9.69683         0.222259     -0.273473     -0.647671
11   2      0.73869      1.55804     12.15734         0.307525      0.159898     -0.131663
12   2      3.44843      0.11351     12.12634        -0.150797     -0.127151     -0.039050
13   2      0.01878      2.79158      0.03256        -0.007616     -0.060350     -0.607453
14   2      2.57947      4.48163     29.51114        -0.342299     -0.137470      0.138903
15   2      1.80799      2.69878      2.22307        -0.173517      0.298479      0.374617
16   2      4.10490      4.36975      2.11569         0.671379     -0.323111      0.472951
17   2      1.05600      4.32278      4.64227        -0.463142     -0.493275      0.889150
18   2      3.54572      2.87157      4.72104        -0.133349      0.136545     -0.292023
19   2     15.16325      2.90420      7.13561         0.370339      0.033297     -0.184423
20   2      2.65212      4.49274      7.19554        -0.744496      0.112502     -0.670222
21   2      1.59198      2.94616      9.66240         0.127110      0.283289     -0.289533
22   2      4.02691      4.54601      9.49157         0.553070      0.063060      0.670916
23   2      0.99823      4.51765     12.10124        -0.556674     -0.056689     -0.108989
24   2      3.40776      2.98436     11.96494        -0.225052      0.341884      0.452756
25   2     15.21791      5.79124     29.58704         0.186266     -0.193719      0.123886
26   2      2.48487      7.36347     29.75854        -0.045256     -0.183813      0.008076
27   2      1.76754      5.73744      2.47053        -0.507353      0.782013     -1.042953
28   2      4.27898      7.29871      2.28552         0.051725     -0.011801      0.499660
29   2      0.81812      7.21642      4.83128         0.111180      0.472444     -0.982005
30   2      3.54748      5.82178      4.64241         0.262148      0.218978      0.450160
31   2      0.00609      5.78446      7.10124         0.085097     -0.420738      0.397009
32   2      2.45844      7.42240      7.02330         1.208161     -0.616744      0.764594
33   2      1.49214      6.00191      9.65095         0.367329     -0.144087     -0.338990
34   2      4.30593      7.41614      9.68804        -0.029395     -0.402780     -0.513084
35   2      0.85477      7.53848     12.03934        -0.037430      0.033785      0.042787
36   2      3.40452      5.94873     12.06664        -0.322192      0.134392      0.000859
37   2     15.24671      8.70852     29.56274         0.013522      0.232464      0.250360
38   2      2.83320     10.26327      0.09996        -0.320638     -0.104387     -0.387399
39   2      1.70857      8.78587      2.34086         0.014474      0.044298      0.393715
40   2      4.45895     10.16702      2.44384        -0.031835      0.552571      0.595204
41   2      0.86128     10.24475      4.80038        -0.069989     -0.252741     -0.356875
42   2      3.52603      8.86926      4.81723        -0.489375     -0.302173     -0.964252
43   2      0.06046      8.62246      7.26660        -0.578863      0.758999      0.246121
44   2      2.51862     10.31039      7.24661         0.021315      0.029829     -0.223595
45   2      1.81098      8.96171      9.65574        -0.511287     -0.388101      0.057600
46   2      4.29823     10.17568      9.52665         0.241243      0.559533      0.192519
47   2      0.92523     10.53117     11.99724        -0.002302      0.036684      0.111316
48   2      3.42754      8.88685     12.20134        -0.359976      0.420268     -0.119041
49   2      0.34084     11.63206     29.67774        -0.555887     -0.347848     -0.158057
50   2      2.77498     13.25124      0.01176         0.156907      0.160861     -0.375251
51   2      1.69355     11.71613      2.28005        -0.042990     -0.242949      0.882679
52   2      4.15762     13.16244      2.50058         0.502633     -0.291295     -0.138624
53   2      0.77944     13.17080      4.81996         0.202680      0.167760     -0.344226
54   2      3.33477     11.70717      4.89121         0.195515      0.242829     -0.340198
55   2     15.27037     11.63217      7.15742         0.348261      0.543041     -0.135654
56   2      2.43102     13.34869      7.25118         0.466896     -0.165717     -0.641416
57   2      1.68095     11.89785      9.43658        -0.309417     -0.305121      0.871673
58   2      4.10829     13.11261      9.87154         0.545652      0.570119     -0.535450
59   2      0.86188     13.49518     11.99094         0.071449     -0.219719     -0.098108
60   2      3.52380     11.86010     12.27124        -0.636503      0.108331      0.039034
61   2      5.33649     14.68527     29.55354        -0.310955     -0.512463      0.263066
62   2      7.74728      1.42963     29.65214        -0.068638      0.068819      0.180254
63   2      6.83967      0.03085      2.47624        -0.495831     -0.212741     -0.928413
64   2      9.42542      1.48996      2.34780        -0.111991     -0.161108      0.094247
65   2      5.94231      1.32115      5.01605         0.152583      0.342112     -0.491672
66   2      8.44767      0.09176      4.65882         0.606082      0.143275      0.848223
67   2      5.03594     14.65054      7.27349        -0.171725      0.464136      0.439242
68   2      7.72554      1.72026      7.31832        -0.300406     -0.286172     -0.492306
69   2      6.70829      0.18146      9.57092        -0.149417     -0.126342      0.251140
70   2      9.29784      1.48841      9.63174        -0.277759      0.388908      0.462990
71   2      5.90168      1.77063     12.29734         0.270427     -0.377718     -0.358481
72   2      8.44818      0.19898     12.19424         0.021209      0.371049     -0.175505
73   2      5.05186      2.68632     29.76134         0.298536      0.562791     -0.335192
74   2      7.55965      4.36414     29.52054        -0.039532     -0.302110      0.254224
75   2      6.55399      2.81734      2.39194         0.500962      0.226990      0.251370
76   2      9.28708      4.31376      2.09329         0.141890     -0.108086      0.216807
77   2      6.05396      4.37378      4.94131        -0.006442     -0.020791     -0.405640
78   2      8.57418      3.10484      4.70586        -0.143222     -0.319777     -0.068189
79   2      5.13510      2.99786      7.14272        -0.239372     -0.285005      0.729811
80   2      7.78273      4.66650      7.26598        -0.432857     -0.196910     -0.409577
81   2      6.63212      3.11707      9.60475        -0.017575     -0.555016      0.103623
82   2      9.45987      4.38857      9.52991        -0.504439      0.193558      0.494454
83   2      5.86804      4.64899     12.13824        -0.510395     -0.532445     -0.007673
84   2      8.32686      3.31368     11.95004         0.511869     -0.348733      0.151155
85   2      5.11555      5.88430     29.72114        -0.045432     -0.154503     -0.193004
86   2      7.56924      7.19217     29.50814         0.419606     -0.274099      0.194481
87   2      6.77675      5.64855      2.56745        -0.371830      0.248721     -0.601239
88   2      9.19328      7.20917      2.29466         1.045256     -0.297210     -0.080569
89   2      6.10439      7.40791      4.83951        -0.108058     -0.090786      0.073908
90   2      8.58826      5.94808      4.70049         0.183291      0.100752      0.219960
91   2      5.17351      5.96576      7.16011        -0.129184      0.526167      0.293011
92   2      7.72440      7.80372      7.39313        -0.043700     -0.809226     -0.411844
93   2      6.86230      5.81718      9.62924        -0.122123      0.987628      0.090024
94   2      9.50236      7.30593      9.62550        -0.385559      0.268492      0.310909
95   2      5.78376      7.48541     12.26524        -0.153725      0.629962     -0.071702
96   2      8.09682      6.20083     12.31874         1.383079     -0.022083     -0.369620
97   2      5.24669      8.82314      0.11576        -0.446100     -0.527603     -0.590016
98   2      7.68627      9.93767      0.02846         0.824900      0.996227     -0.089489
99   2      7.01291      8.70453      2.52362        -0.815023      0.417010      0.105045
100   2      9.42636     10.36032      2.55593         0.140070     -0.539826     -0.678466
101   2      6.29223     10.38801      4.97671        -0.630580      0.061413     -0.790717
102   2      8.73545      9.01082      4.87916         0.120254     -0.679635      0.250067
103   2      5.09207      9.02431      7.00081         0.301965     -0.637975      1.316824
104   2      7.80423     10.54929      7.41739        -0.095674      0.370113      0.008847
105   2      6.86907      8.82861      9.82187        -0.306917     -0.012037     -0.322748
106   2      9.52558     10.21001      9.70271        -0.179249      0.479989     -0.204513
107   2      5.89351     10.54889     12.13964         0.325977     -0.381316      0.015106
108   2      8.40982      9.10015     12.04884         0.343149     -0.254026      0.614197
109   2      5.26121     11.66720     29.49174         0.295114      0.519131      0.455505
110   2      7.76600     13.23463     29.51754        -0.268344     -0.427360      0.349556
111   2      6.91682     11.72086      2.31684        -0.637551      0.028080     -0.231323
112   2      9.28014     13.21671      2.37788         0.478397      0.483815     -0.334396
113   2      5.93311     13.21419      4.64826        -0.094326     -0.086785      0.544951
114   2      8.56524     11.93178      4.80494         0.323772      0.217541      0.530751
115   2      5.09646     11.90178      7.19349         0.106197     -0.124591      0.191875
116   2      7.70176     13.55377      7.18909        -0.343235     -0.486365     -0.220236
117   2      6.64200     11.80684      9.70252         0.360288      0.241128     -0.147934
118   2      9.13433     13.31557      9.64398         0.151712     -0.288518      0.096427
119   2      6.07283     13.58085     12.05884        -0.412556     -0.223590     -0.013165
120   2      8.54628     12.02198     12.08144        -0.018125     -0.163239      0.028175
121   2     10.20122     14.52590     29.69764         0.104996     -0.138334      0.051317
122   2     12.86078      1.24264     29.72284         0.432550     -0.028616     -0.685876
123   2     11.99074      0.11039      2.25408        -0.516049     -1.025685      0.683934
124   2     14.61899      1.27510      2.46293        -0.077384      0.227454     -0.420462
125   2     10.99857      1.59421      4.86551        -0.078329     -0.323710     -0.457122
126   2     13.53793      0.01706      4.72188         0.097692     -0.046758      0.160908
127   2     10.23987     14.69927      7.31744        -0.319387      0.544418     -0.615924
128   2     12.68872      1.49477      7.09516         0.158436      0.020515      0.582623
129   2     11.64662      0.03689      9.63278         1.115972     -0.247243      0.329596
130   2     14.54449      1.48248      9.64690        -0.475512     -0.281665     -0.426822
131   2     11.00864      1.49114     12.20724        -0.372558      1.452246     -0.129838
132   2     13.51256      0.31738     12.01294         0.254383     -0.497501      0.082304
133   2     10.35163      2.55136     29.66854        -0.275566      0.675896     -0.160047
134   2     12.76423      4.10813     29.47204         0.139375      0.455300      0.042036
135   2     12.09987      2.86088      2.17887        -0.310931      0.502487      0.394779
136   2     14.63006      4.22863      2.31549        -0.193534      0.636189     -0.015081
137   2     11.20445      4.39713      4.55337        -0.377974      0.476611     -0.046351
138   2     13.62884      2.99296      4.64612         0.256442     -0.254965      0.378467
139   2     10.17917      3.02372      7.22499         0.553610     -0.010156     -0.324628
140   2     12.68228      4.50980      7.18794        -0.246424     -0.407559     -0.473463
141   2     11.89650      2.90572      9.77341         0.054658     -0.379621     -0.542425
142   2     14.33015      4.34536      9.45799         0.418003      0.479269      0.425656
143   2     11.06935      4.50051     11.97864        -0.198910      0.154305      0.286412
144   2     13.66025      3.21968     12.02064         0.191995      0.208147      0.172445
145   2     10.14192      5.65793     29.48624         0.032901     -0.103513      0.098366
146   2     12.72779      7.21347     29.44444         0.246271     -0.510610      0.042696
147   2     11.92801      5.74208      1.96810         0.038962     -0.018417      0.509717
148   2     14.60006      7.27736      2.21443        -0.143793     -0.302499      0.266241
149   2     11.19580      7.36991      4.61152        -0.288630     -0.084897      0.146326
150   2     13.67233      5.87085      4.68289        -0.143082     -0.084604     -0.297820
151   2     10.13668      6.06341      7.01296         0.673224      0.187410      0.166391
152   2     12.88263      7.30777      7.24501        -0.296787      0.178327     -0.095813
153   2     11.81616      5.84934      9.57920         0.694176      0.387662      0.094760
154   2     14.39317      7.35314      9.76740         0.122718      0.210517     -0.485636
155   2     11.22237      7.83087     12.11714        -1.294500     -1.285672     -0.028303
156   2     13.51175      6.28490     12.16374         0.172064     -0.776490      0.045688
157   2     10.24420      8.52117      0.05076        -0.924473      0.045470     -0.413729
158   2     12.52321      9.99382     29.65244         0.971466      0.738633     -0.122485
159   2     11.98258      8.61477      2.24295        -0.065779      0.108928      0.468930
160   2     14.40546     10.20065      2.29199         0.171130      0.326381     -0.218379
161   2     11.25439     10.49311      4.80956        -0.260558     -0.299117     -0.035787
162   2     13.67384      8.79246      4.65950         0.015897      0.075942      0.172842
163   2     10.47656      8.95093      7.16619        -0.269370     -0.142442      0.187080
164   2     12.96961     10.23800      7.20126        -0.454177     -0.110429     -0.051476
165   2     12.09826      9.00558      9.67828        -0.343352     -0.262634     -0.711834
166   2     14.55305     10.52453      9.68361         0.019014     -0.509365      0.036984
167   2     11.01095     10.50137     12.20454        -0.165039      1.127998     -0.007893
168   2     13.52283      9.17744     12.05304         1.388884      0.538813      0.415488
169   2     10.24098     11.56522     29.70854        -0.585324      0.178010     -0.029661
170   2     12.66819     13.11180     29.50884         0.212836     -0.268786      0.352681
171   2     11.80670     11.78801      2.27753         0.644061      0.201945      0.165249
172   2     14.40113     13.16999      2.25974        -0.131865     -0.440850      0.220114
173   2     11.00401     13.43860      4.85041        -0.022768     -0.112514     -0.587002
174   2     13.63357     11.86503      4.69487         0.098687     -0.187670     -0.139820
175   2     10.31438     11.84540      7.32976        -0.270460     -0.330371      0.122472
176   2     12.68480     13.22174      7.12282         0.714854      0.151061      0.299382
177   2     11.98993     11.89000      9.79365        -0.490125      0.151305     -0.070225
178   2     14.36247     13.34135      9.47354         0.198314      0.516416      0.198239
179   2     10.99072     13.62525     12.24584         0.124763     -1.491077     -0.155182
180   2     13.68149     12.14924     12.20374        -0.146621     -0.095823     -0.314667
