ITEM: TIMESTEP
0
ITEM: NUMBER OF ATOMS
180
ITEM: BOX BOUNDS pp pp pp
0.0 15.3362549999999995 
0.0 14.7573100000000004
0.0 29.7984842388000004
ITEM: ATOMS id type x y z fx fy fz
1   2      0.33454     14.61007     29.58424        -0.306462      0.046488     -0.129371
2   2      2.72688      1.27523     29.26624         0.146810      0.053698      0.548069
3   2      1.85786     14.62658      2.21042        -0.099791      0.245565      0.324612
4   2      4.21111      1.12862      2.79882         0.013234     -0.041928     -0.727062
5   2      0.98605      1.19876      5.00866        -0.441105      0.562010     -0.198259
6   2      3.39688     14.56688      5.22888         0.029237      0.094137     -0.753636
7   2      0.05990      0.13047      7.58202        -0.002655      0.446246     -0.909439
8   2      2.64334      1.43215      7.53598        -0.750797      0.089039     -0.088967
9   2      1.90024     14.64057      9.94844        -0.630977      1.251470     -0.062544
10   2      4.28270      1.56784      9.79178        -0.113792     -0.268974      0.316519
11   2      0.78767      1.50305     12.32094         0.206588      0.588778     -0.393949
12   2      3.48321     14.74376     12.39144         0.337769      0.465568     -0.174662
13   2      0.27851      2.76866     29.77519        -0.298597     -0.001489     -0.092814
14   2      2.86150      4.34032     29.20764        -1.105227     -0.604623      0.403508
15   2      1.90658      2.75700      2.26196        -0.445762     -0.407109      0.304576
16   2      4.22677      4.22026      2.19696         0.327400      0.116103      0.457335
17   2      1.00490      4.13496      4.70768        -0.830474     -0.139683      0.384296
18   2      3.48332      2.93861      4.97240         0.187521     -0.493061     -0.403658
19   2      0.05118      3.05782      7.36570         0.238237     -0.445979      0.049747
20   2      2.41229      4.50211      7.26007        -0.046385      0.435690      0.194985
21   2      1.87117      3.46581      9.98884        -1.351847     -0.727808     -0.655983
22   2      4.29649      4.64348      9.69933        -0.082847      0.420462     -0.013922
23   2      0.55333      4.93253     12.26924         0.407879     -0.018674     -0.354783
24   2      3.41691      3.02995     12.09994         0.252318     -0.064467      0.853159
25   2      0.05869      5.59945     29.63564         0.100168      0.124928      0.072637
26   2      2.56644      7.21418     29.64224        -0.492344     -0.269272      0.183670
27   2      1.68077      5.61560      2.27765         0.083673      0.450603     -0.119341
28   2      4.35624      7.07140      2.41405        -0.480822      0.207645     -0.522614
29   2      0.79018      7.40458      4.73311         0.050553     -0.150568     -0.789965
30   2      3.24515      5.76639      4.70555         0.477511      0.386020      0.040420
31   2     15.18660      6.15454      7.02372         0.378161     -0.415850      0.504529
32   2      2.49150      7.53309      6.98137         0.319925     -0.487559      0.657343
33   2      1.77025      6.21740      9.74399        -0.227862      0.194860     -0.227602
34   2      4.26902      7.61975      9.61562         0.055637     -0.722955     -0.147243
35   2      0.42172      7.68908     11.89184         0.292362     -0.044095      0.336995
36   2      3.47229      6.07106     12.22874        -0.265434     -0.146046     -0.241399
37   2     15.25204      8.73949     29.50064         0.589256     -0.452788      0.451361
38   2      2.66369     10.14306     29.71584        -0.923269     -0.665621      0.044393
39   2      1.65284      8.68652      2.26378        -0.121517     -0.077880     -0.077811
40   2      4.49699     10.11900      2.13790        -0.777808     -0.656980      0.088857
41   2      0.81120     10.38328      4.53431         0.213377     -0.316153      0.147483
42   2      3.47986      8.74204      4.61236        -0.374573      0.025752     -0.196680
43   2      0.05526      9.04251      7.12481        -0.229681     -0.122945     -0.151109
44   2      2.64359     10.42455      7.01820        -1.127624     -0.613454      0.064377
45   2      1.64238      9.05335      9.51346         0.146341     -0.302880      0.140583
46   2      4.26996     10.35015      9.59300        -0.598818      0.887584      0.099404
47   2      0.59041     10.43362     12.25924         1.714752      0.707957      0.547817
48   2      3.41105      8.93004     12.08864        -0.781716      0.378969     -0.058146
49   2      0.04907     11.72559     29.38154         0.820947     -0.100700      0.262923
50   2      2.77428     12.90733     29.65194        -0.790076      1.017219     -0.129334
51   2      1.69498     11.89574      2.29203        -0.072432     -0.549801     -0.079918
52   2      4.70714     12.94347      2.11057        -1.026967     -0.281088      1.306595
53   2      0.91869     13.17785      5.09791        -0.158580      0.041781     -0.781224
54   2      3.42034     11.63891      4.49729        -0.239461      0.509670     -0.051915
55   2      0.00992     11.82375      7.27195         0.038968      0.031430      0.382840
56   2      2.54673     13.24953      7.54308        -0.402951      0.054010     -0.475115
57   2      1.63239     11.80734      9.80428         0.368553     -0.310949      0.136781
58   2      4.23085     13.32836      9.70108         0.961420     -0.355504      0.353051
59   2      0.97229     13.54240     12.33724        -0.635117     -0.834602      0.304786
60   2      3.23295     11.82033     12.25094        -0.006106     -0.017704     -0.119247
61   2      5.32717     14.25277     29.75454        -0.609165      1.391344     -1.237178
62   2      7.64377      1.12508     29.76314         0.552142      0.632621     -0.418944
63   2      7.02439     14.53345      2.29974        -0.505490      0.310463      0.521265
64   2      9.49885      1.42857      2.39897        -0.334050     -0.414793     -0.581549
65   2      6.02766      1.46801      4.74496        -0.241269      0.456283      0.793241
66   2      8.41175      0.22964      4.92588         0.188497     -1.113788     -0.821308
67   2      5.24940     14.73354      7.27679        -0.416351      0.740278      0.476723
68   2      7.78659      1.69670      7.62292        -0.731668     -0.229783     -0.662507
69   2      6.79015      0.15045      9.97464         0.058995      0.314870     -0.493808
70   2      9.33455      1.74980      9.85375         0.584436     -0.673716      0.133860
71   2      5.97441      1.87903     12.49294        -0.060414     -0.666316     -0.329990
72   2      8.58844      0.15229     12.26904        -0.587895      0.549741     -0.081195
73   2      5.13679      2.63775      0.05600        -0.292445     -0.370285     -0.591779
74   2      7.54050      4.13297     29.45234         0.612793     -0.110589      0.128297
75   2      6.80804      2.66679      2.24623         0.019109      0.262958      0.597568
76   2      9.20820      4.26569      2.30717         0.264802     -1.349454      0.079547
77   2      6.03465      4.38630      4.80636        -0.044893     -0.105458     -0.397998
78   2      8.56584      2.89442      4.85979        -0.328109      0.891367     -0.030474
79   2      4.87558      3.02047      7.38475         1.041247     -0.100146     -0.029139
80   2      7.59904      4.51920      7.38461        -0.110751      0.004972     -0.195760
81   2      6.64855      3.09641      9.86801         0.216897      0.080335     -0.199240
82   2      9.35497      4.52685      9.62144        -0.064143      0.433727     -0.062497
83   2      5.92639      4.68247     12.47764         0.187538      0.374745     -0.341953
84   2      8.44369      3.19686     12.08804         0.152590     -0.241525      0.499393
85   2      5.13976      5.63765     29.40134         0.625885      0.500643      0.139124
86   2      7.73214      7.29500     29.48314        -0.144808     -0.444021     -0.515567
87   2      6.78881      5.58439      2.03081        -0.415779     -0.453271      0.427512
88   2      9.45641      6.84515      2.03486         0.096827      1.681121      0.627360
89   2      6.04226      7.47451      4.57482        -0.081844     -0.457287      0.662112
90   2      8.44622      5.93328      4.79151        -0.011817     -0.353286     -0.785988
91   2      5.06778      5.83476      7.00625        -0.206574      0.612261      0.370002
92   2      7.56321      7.44168      7.02412        -0.067490      0.255203      0.501887
93   2      6.66154      6.00314      9.79068         0.651728      0.601101     -0.032969
94   2      9.29973      7.46129      9.34181        -0.614325      0.003659      0.888234
95   2      5.79052      7.72730     12.49674         0.853306     -0.376180     -0.444466
96   2      8.67232      5.95773     12.16424        -0.410407      0.724357     -0.376614
97   2      5.03187      8.45512     29.67264         0.533408      0.282876     -0.142313
98   2      7.58370     10.28069     29.43244         0.058312     -0.227646      0.171106
99   2      7.07036      8.28513      2.14108        -0.394611      1.163946      0.209426
100   2      9.41391      9.91461      2.07144        -0.032105      0.416798      0.488764
101   2      5.84473     10.33838      4.66439         0.386497     -0.415511      1.226968
102   2      8.55651      8.88927      4.67560         0.211702      0.278941      0.021356
103   2      5.13117      8.87012      7.16961         0.027847     -0.134738     -0.239960
104   2      7.67276     10.64715      7.21395        -0.125596     -0.366174     -0.040522
105   2      6.76753      9.21416      9.57747         0.603050     -0.985442     -0.065902
106   2      9.46567     10.49855      9.62210        -0.135191      0.236166     -0.043334
107   2      5.79154     10.65249     12.19584         0.107745     -0.683929      0.036586
108   2      8.32639      9.41517     11.99694        -0.124937     -0.882624      0.100425
109   2      5.01783     11.46001     29.34094         1.188615     -0.334954     -0.026705
110   2      7.73763     13.08774     29.47214         0.395090     -0.549749      0.098826
111   2      6.94355     11.24366      2.44376         1.030580      0.563830     -1.137878
112   2      9.24798     13.08382      2.53456         1.037319     -0.214275     -0.765141
113   2      5.87162     13.32987      4.67601         0.121121     -0.167557      0.222051
114   2      8.38176     11.87721      4.77928         0.126220     -0.361885      0.635170
115   2      4.89964     11.76919      7.09756         1.453386      0.660031      0.044725
116   2      7.58434     13.49488      7.17762        -0.185663     -0.761276     -0.167474
117   2      6.75054     11.99430      9.69865         0.192396      0.063756     -0.303150
118   2      9.20785     13.43306      9.36935         0.582448      0.029235      1.021112
119   2      5.96470     13.34960     12.08404        -0.094502      0.535833      0.566957
120   2      8.57375     12.08541     12.38154        -0.412893      0.607529     -0.274516
121   2     10.25196     14.42120     29.75444         0.123523      0.620797      0.216251
122   2     12.85011      1.06949     29.68094         0.235800      0.370320     -0.031568
123   2     12.05326     14.37680      2.48010        -0.654957      0.341398     -0.273811
124   2     14.56382      1.12150      2.47684         0.238269      1.285000      0.211517
125   2     11.15623      1.39775      4.56543        -0.338290     -0.136570      0.475939
126   2     13.57951     14.62960      4.98795         0.656655     -0.187211     -0.545496
127   2     10.03450      0.01884      7.07500         1.291944      0.712450      0.640971
128   2     12.65621      1.49297      7.12362        -0.023537     -0.132070      0.527173
129   2     11.99798      0.26374      9.64817        -0.473426      0.029572     -0.435412
130   2     14.49093      1.61857      9.86952         0.759151      0.206268     -0.193413
131   2     11.19670      1.89949     12.16314        -0.169852     -0.609568     -0.113331
132   2     13.57145     14.75595     12.10134         0.240258      0.870023      0.110122
133   2     10.33522      2.67673     29.55094        -0.508590     -0.207007      0.041632
134   2     12.81558      4.20102     29.63204         0.550883      0.138229     -0.405679
135   2     12.03765      2.68810      1.98833         0.105228     -0.161199      1.044596
136   2     14.47130      4.31711      2.63446         0.283221     -1.261102     -0.727291
137   2     11.00018      4.26291      4.56277        -0.232929      0.253170      0.175301
138   2     13.47521      2.81994      4.78811         0.962780     -0.274634     -0.015315
139   2     10.23977      3.13193      7.18791         0.247944     -0.028853      0.133849
140   2     12.96860      4.36774      7.42311        -0.411116      0.040170     -0.871231
141   2     12.07883      3.04102      9.65011        -0.597897      0.231823      0.154740
142   2     14.43516      4.71513      9.76466         0.406232      0.085487      0.202797
143   2     11.12784      4.64307     11.92934         0.094676      0.256224      0.014856
144   2     13.79395      3.17689     12.23354        -0.412940     -0.121074     -0.162652
145   2     10.24038      5.53428     29.60364         0.002862     -0.140141     -0.767760
146   2     12.55009      7.42884     29.45034         0.319926     -0.343245     -0.008714
147   2     11.97020      5.57390      2.17652        -0.284908      0.155993      0.223060
148   2     14.36720      6.94711      2.16666         0.422981      1.475626      0.056187
149   2     11.04851      7.29777      4.50281         0.162023      0.271855      0.207840
150   2     13.42336      5.57907      4.91756         0.169254      1.049949     -0.113041
151   2     10.13799      6.04222      6.93255         0.306076     -0.176833      0.121250
152   2     12.65731      7.61716      7.10986         0.210458      0.124455     -0.575752
153   2     11.74639      6.06515      9.21350         0.252940      0.080019      1.067387
154   2     14.37988      7.57937      9.47178        -0.151244     -0.097811     -0.166726
155   2     10.83568      8.04177     11.96744        -0.312525     -0.648304      0.231907
156   2     13.13623      6.50462     12.15644         0.513343      0.031670     -0.225606
157   2     10.09359      8.82231     29.39364         0.280218      0.024209     -0.147432
158   2     13.02579     10.30294     29.40494        -0.998734     -0.326272     -0.174557
159   2     11.84033      8.56113      2.09176         0.478408      0.253472      0.404988
160   2     14.37958     10.30173      2.10793         0.445399     -0.654560     -0.208093
161   2     11.07418     10.42244      4.73339         0.025127     -0.440344     -0.200411
162   2     13.72045      8.80685      4.60678        -0.649353     -0.179952     -0.124271
163   2     10.14896      9.01053      7.24016         0.139099      0.281878     -0.733083
164   2     12.92038     10.48224      7.30754        -0.410528     -0.320552     -0.065990
165   2     11.93486      9.08971      9.67341         0.194571      0.165314     -0.320145
166   2     14.44945     10.45194     10.04734        -0.748396     -0.012834     -1.094704
167   2     10.98246     10.78256     12.13474         0.513974      0.045587      0.003085
168   2     13.57528      9.39508     12.87414        -1.056697     -0.801858     -0.394362
169   2     10.21118     11.72932     29.34184         0.018823     -0.588676      0.101536
170   2     12.96609     13.11573     29.57284        -0.552171      0.012772     -0.560613
171   2     11.79492     11.59159      1.89461        -0.286351     -0.240752      0.722892
172   2     14.51006     13.25114      2.05691         0.677962     -0.944013      0.527505
173   2     10.93776     13.26332      4.84471         0.404729     -0.115564     -0.238746
174   2     13.64797     11.69056      4.32631        -0.465960      0.670239      0.698913
175   2     10.36723     11.89976      7.22851        -0.256274     -0.410603      0.147259
176   2     12.82313     13.28023      7.24777         0.050150      0.296992      0.283308
177   2     12.10420     12.28344      9.85847        -0.164428     -0.975505     -0.427100
178   2     14.68373     13.39903      9.67717        -0.592850     -0.239309      0.684470
179   2     10.95780     13.67972     11.96454         0.164502     -0.134007      0.403148
180   2     13.63126     12.12649     12.51104        -0.091500     -0.310371     -0.199890
