ITEM: TIMESTEP
0
ITEM: NUMBER OF ATOMS
180
ITEM: BOX BOUNDS pp pp pp
0.0 15.3362549999999995 
0.0 14.7573100000000004
0.0 29.7984842388000004
ITEM: ATOMS id type x y z fx fy fz
1   2      0.79733      0.05468     27.83874        -0.401612      0.169044      0.472743
2   2      2.00145      1.77553     29.60514         0.587580     -0.685897     -0.375424
3   2      1.80786      0.11959      2.64875        -0.284719     -0.555240     -0.752242
4   2      4.15770      1.55405      1.98390         0.360889     -0.471641     -0.317565
5   2      0.49273      0.97879      4.88799         0.739168      0.651406     -0.133883
6   2      3.38613     14.45201      4.85056         0.436618     -0.064621      0.274370
7   2      0.03914      0.06775      7.38413         0.285320     -0.181496      0.699732
8   2      2.72388      1.75966      6.83513         0.276152     -0.686849     -1.098055
9   2      1.62163      0.21937      9.89544         0.180212     -0.188163     -0.416545
10   2      4.36525      1.56607      9.93404        -0.767577     -0.043285     -0.113179
11   2      0.70011      1.52021     12.48044         0.996424     -0.165163     -0.053596
12   2      3.10921     14.46187     12.14244         1.147308      0.544790      0.332518
13   2      1.02847      3.30297     27.62734        -0.760195     -0.173553      0.125470
14   2      2.23795      4.91225     29.44894         0.751112      0.052188      0.238762
15   2      1.62296      2.96779      2.11693        -0.093320      0.366208      0.802084
16   2      4.00264      4.26207      1.81282         0.494028      0.740186     -0.006938
17   2      0.63589      4.19898      4.54273         0.883818      0.276679      0.473791
18   2      3.52038      2.91848      4.30487        -0.153731      0.159292      0.881818
19   2     15.08683      3.07178      7.18144         0.824558     -1.029573     -0.282768
20   2      2.52023      4.84611      6.80637        -0.348383     -1.324849      0.374095
21   2      1.98011      2.85348      9.08355        -0.694736      0.888383      0.744719
22   2      4.33063      4.29830      9.49619        -0.334727      0.781673     -0.307448
23   2      1.20146      4.55223     12.67044         0.270940      0.334915     -0.598869
24   2      3.54917      3.11839     12.79564        -0.132996     -1.797171      0.064316
25   2     15.30349      5.90242     28.57254         0.546534      0.104891     -0.328136
26   2      2.14049      7.83917     29.09894         1.141221     -1.740589      0.251623
27   2      1.32731      5.96380      2.18881        -0.205835      0.308461     -0.305884
28   2      3.97753      7.18672      1.86224        -0.018904      0.373231      0.065907
29   2      0.71903      7.04314      4.85308         0.019043      0.296056      0.054138
30   2      3.16090      5.86722      4.27861        -0.077663     -1.077329     -0.559536
31   2     14.95072      5.76576      7.14885         0.537898      0.430179      0.310291
32   2      3.00809      7.39452      7.33983        -1.779241      1.645918      0.665183
33   2      1.65255      5.66544      9.82514         0.154539      0.189312     -0.141954
34   2      4.45053      7.63979      9.60817         0.320351     -0.488289      0.683088
35   2      0.50809      7.45694     12.19504         0.447943     -0.609295     -0.449560
36   2      4.09958      5.57270     12.35904        -0.330435      1.238126     -0.493576
37   2      0.01264      9.24958     29.33714        -1.241097      0.820013      0.308994
38   2      2.65525     10.45737     29.05174        -1.169846      0.031742     -0.164964
39   2      2.12852      9.32087      1.90563        -0.138204     -0.475668      0.208355
40   2      4.71453     10.43543      2.31687         1.522160     -0.758504     -2.113984
41   2      0.72266      9.80397      4.73148         0.824276     -0.125837     -0.297323
42   2      3.35570      8.52801      4.55573         0.019776      0.326695      0.011766
43   2      0.16203      8.80052      7.36345         0.128535     -0.241846      0.112242
44   2      2.80929     10.55805      7.69353        -0.518128     -0.623858     -0.742544
45   2      1.83320      8.87046      9.67116        -0.274138     -0.541318      0.503504
46   2      4.60887     10.42757      9.81625        -0.177161     -0.737542      0.417668
47   2      0.82881     10.10229     12.43184         0.152293      0.703670     -0.321053
48   2      3.52256      8.42662     12.53134        -0.265981      0.251342     -0.572138
49   2     15.15459     12.16947     29.25604         0.136889      0.106794     -0.397484
50   2      2.38893     12.72440     27.32114         0.016625     -0.272866      0.909126
51   2      1.37736     11.94104      1.68877         0.582319      0.687545      0.310172
52   2      4.34740     13.51904      2.24967         0.036745     -0.340065      0.120120
53   2      0.94618     12.53704      4.47291         1.898701      1.539488     -0.202648
54   2      3.40684     11.22533      4.23844        -1.301135      1.541358      2.248258
55   2      0.19553     11.74925      7.43828         0.358321      0.528858     -0.637630
56   2      2.75292     13.33772      7.34641        -2.053415      1.236663     -0.228740
57   2      1.74788     11.81459     10.00914        -0.235612      0.090710      0.200533
58   2      4.16212     13.09398      9.75526         0.417645      1.370386      0.748592
59   2      0.79258     13.20040     12.50814         0.522397      0.070062     -0.297428
60   2      3.29569     11.50139     12.47774         0.304860     -0.105297     -0.307596
61   2      5.02674      0.44981     29.33594        -0.186671      0.069954     -0.102919
62   2      7.55147      1.86891     29.07534        -0.247542     -0.932202      0.166168
63   2      6.89380      0.31838      1.70505        -0.568178     -0.467601      0.342777
64   2      9.35251      1.40689      1.88494         1.196137     -0.218302     -0.217728
65   2      6.13170      1.71592      4.32710        -0.272676     -1.140884      0.255607
66   2      8.43443     14.32113      5.45614         0.262553      0.329790     -0.963156
67   2      5.28882      0.06601      7.34043        -0.019160      0.997727     -0.108637
68   2      7.75881      1.71373      6.89838         0.683598     -0.590521     -0.476724
69   2      6.50180      0.17200     10.45544         0.439221     -0.684229     -0.169632
70   2      8.96067      1.38139     10.34724         0.119584      0.664256     -0.459785
71   2      5.28578      1.10383     13.82624         0.020687     -0.178427     -1.050432
72   2      8.17992      0.13340     12.80684        -0.301641     -0.509112      0.218710
73   2      4.53714      3.27443     28.93074         0.239222     -0.376257      0.393350
74   2      8.14816      4.39691     29.21684        -1.513212      0.005573      0.626457
75   2      7.13256      3.13482      2.18822        -0.100448     -0.526765     -1.302671
76   2      9.79290      4.20605      2.32361         0.654909     -0.276070     -0.258830
77   2      6.11737      4.52635      4.31996        -0.686962     -0.067248      0.285977
78   2      8.83380      2.67322      4.33244         0.392981     -0.570647      1.081928
79   2      5.35199      3.05423      6.79726        -1.801497     -0.514390     -0.573241
80   2      7.22376      5.00275      6.89968         1.216649      1.223168      0.015254
81   2      7.06184      3.31067      8.84133         0.069618     -0.708665      1.901611
82   2      9.21192      4.16049     10.31854         0.340196      0.291911      0.124614
83   2      6.17935      3.47914     11.46344        -0.289955     -0.717225      0.963385
84   2      8.86170      2.53452     13.85364        -1.377724      1.580398      0.297771
85   2      4.78278      6.12163     29.18754         0.142247      0.134217      0.150569
86   2      7.45634      6.93337     29.13424        -0.353041      1.003102      0.593485
87   2      6.44218      5.69644      1.88479         0.263653      1.105055     -0.968591
88   2      9.70012      6.76277      1.62312        -0.707089      1.593288      1.116251
89   2      6.18117      7.41385      4.16774         1.090354      1.435305     -1.698193
90   2      8.67768      5.51788      4.65934         0.219672      0.268970     -0.494532
91   2      5.01123      6.35105      6.15173         0.370735     -0.853446      1.349524
92   2      7.46392      7.92148      7.00356         0.655160     -1.707721     -0.328308
93   2      6.76018      5.80218     10.13794         0.238049      0.510234     -0.858128
94   2      9.27405      7.32176     10.63854        -0.241005     -0.195766     -0.355545
95   2      6.14548      7.36588     12.20834         0.071691      0.772259      0.669915
96   2      8.12086      5.13650     12.77504         0.231085      0.063670     -0.117193
97   2      5.25822      9.55085     29.43814        -0.034437     -0.515188      0.143201
98   2      7.74993     10.59591     28.93104        -0.274039      0.051430      0.531308
99   2      7.12221      9.07840      1.70092         0.195233     -0.536889      0.227366
100   2      9.81939      9.82196      2.13260        -0.350391      0.459359     -0.430220
101   2      6.30196     10.32660      4.86977         0.337122      0.291575     -0.865567
102   2      8.94211      8.39902      4.33959        -0.881532      0.179064     -0.079158
103   2      5.24850      9.23397      7.03105        -1.928929      0.216623      0.653011
104   2      7.54653     10.56822      7.87744        -0.366965      0.612981     -0.427615
105   2      7.07488      8.94438     10.02084        -0.203168     -0.701219      0.294055
106   2      9.26645     10.75558     10.15844        -1.212575     -2.530398      2.271155
107   2      6.16626     10.42375     12.64854        -0.683130     -0.446764      0.020554
108   2      8.37484      8.84000     13.20494        -0.164490     -0.292944     -0.380567
109   2      4.40415     12.29733     29.49044         0.910547      1.121468     -0.015347
110   2      7.10129     13.32030     29.12724         0.196815      0.154351      0.424797
111   2      7.13405     11.99883      1.88923        -0.790779      0.030215     -0.812301
112   2      9.73632     12.68433      0.60921        -0.465388      0.203896      0.082744
113   2      6.18960     13.16476      4.50989        -0.658769     -0.012314     -0.218065
114   2      8.83841     12.19434      3.83615         1.041653     -0.539020      0.403300
115   2      5.03229     12.15407      7.25242         1.967165     -1.313421     -0.736195
116   2      7.67657     13.28205      7.81690        -0.127354      0.335827      0.729152
117   2      6.82274     11.93621     10.40054        -0.149112      0.759284     -0.339336
118   2      9.27824     13.39853     10.41134        -1.310248      0.606672     -0.071658
119   2      5.85641     13.24611     12.73364        -0.425503      0.156315      0.168456
120   2      8.46010     11.92443     13.25404        -0.678821     -0.185074     -0.209933
121   2     10.04054      0.41998     29.13754        -0.042198      0.249099      0.387546
122   2     14.03446      1.44061     29.14984         0.362700      0.131093     -0.154220
123   2     12.01027     14.58329      2.13628        -1.943875      2.077595     -0.339617
124   2     14.68534      1.43493      2.05614        -0.479854     -0.953893      0.198459
125   2     11.32758      1.43118      4.94894        -0.070290     -0.306464      0.026756
126   2     13.56441     14.34297      5.15805         0.846917      1.257342      0.474340
127   2     10.34448     14.60312      7.32611         0.275942      0.300661      0.547138
128   2     12.78195      1.32657      7.92738         0.008611     -0.215276     -0.885894
129   2     11.50316      0.06882     10.08474         0.583322      0.624877      0.139966
130   2     14.53422      1.78496      9.98514         1.061427     -0.650053     -0.135514
131   2     10.79309      1.31928     12.81684         1.737068     -0.684096     -1.017026
132   2     13.51346      0.46244     12.33484        -0.530604     -0.368946      0.009353
133   2     10.37297      3.32454     28.40804         1.048008     -1.433374      0.218860
134   2     13.27557      4.19502     29.06274        -0.373406     -0.023988     -0.010073
135   2     12.09685      2.58625      1.13876        -0.453296     -0.369319      0.204863
136   2     14.47281      4.17889      2.11513         0.317081      0.193890     -0.272661
137   2     11.12804      4.11088      5.67028         0.122692     -0.014094     -0.442187
138   2     13.70112      2.83088      4.47584        -1.023952     -0.332652      0.455903
139   2     10.28176      2.74142      7.94620        -0.620921     -0.486693      0.367609
140   2     12.75265      4.12927      8.01877        -0.436438      0.702786     -0.174134
141   2     12.03725      2.76116     10.49014        -0.777080      0.323177      0.312849
142   2     14.37636      4.48479     10.23014         0.952461      0.893844     -1.092759
143   2     10.95327      4.34663     12.57044         0.002138      0.229301      0.191884
144   2     14.06537      3.40074     12.65914        -0.720697     -0.434974      0.510447
145   2     10.29776      5.91374     29.06044         1.436849      0.442866     -1.081531
146   2     13.02901      7.04809     29.14024        -1.100151      0.533505      0.176371
147   2     12.30032      5.58241      1.91353        -0.862549      0.615139     -0.090622
148   2     14.08531      8.05016      1.70407        -0.340937     -0.575083      0.491911
149   2     10.86689      6.88035      5.58811        -0.858710     -0.327675      0.128617
150   2     13.46051      5.98279      4.57584        -0.215976     -0.850664     -0.362467
151   2     10.21249      5.63751      8.12363        -0.999638      0.212219     -1.192702
152   2     12.64996      7.26918      7.37887         0.600999      0.220683      1.808786
153   2     11.79512      5.98780     10.13624        -0.151263      0.382130      0.105343
154   2     14.24145      7.71921      9.71140         0.081318     -0.044074     -0.054356
155   2     10.82047      7.37398     12.89134         0.347367     -0.066903     -0.155826
156   2     13.38631      6.08478     12.18914         0.289932      0.703265      1.426308
157   2      9.70949      8.57630     28.86654         0.010045     -0.785207      0.633267
158   2     12.43250      9.96166     29.76924         0.341858     -0.253652      0.125841
159   2     11.57494      8.09522      3.31585         0.809527     -0.001440     -0.752324
160   2     14.32330     10.66296      2.28680        -0.067563     -0.925592     -0.177445
161   2     11.33835     10.64292      4.92754        -0.552130     -1.276780      0.361540
162   2     13.59018      8.64581      5.16493         0.064480      0.274792     -0.592507
163   2      9.74390      9.26004      7.03430         1.639097      0.090323     -0.307196
164   2     12.88746     10.22924      7.30329        -0.588458      0.363617      0.910161
165   2     11.67139      9.54975     10.09434         0.575947     -1.021359     -0.888228
166   2     14.49355     10.86964      9.74181        -0.713793     -1.312684      0.664538
167   2     10.59154     10.26206     12.62734         0.812502      0.134344      0.176846
168   2     13.46152      9.14191     12.13624         0.097806      0.113514      0.184339
169   2     10.31246     11.01975     28.24714         0.812710      0.901260      0.001611
170   2     12.50076     12.85397     29.73954        -0.064616     -0.155242     -0.150557
171   2     11.67481     11.84983      2.51428        -0.294367     -0.340190     -0.285840
172   2     14.11903     13.27681      2.54391         2.235421      0.311831     -0.026750
173   2     11.26567     13.29181      4.97538        -1.805215      0.082207     -0.063194
174   2     13.97637     11.66589      5.04435        -1.865957     -1.062224      0.408621
175   2     10.28729     11.85154      8.21579         1.518510      1.129933     -2.794551
176   2     12.85484     13.20644      8.07148        -1.033353     -0.537009     -1.826063
177   2     11.95882     12.19746     10.70734         0.097769     -0.575403     -0.925106
178   2     14.52597     13.58770      9.94634         1.164944      0.684171      1.483076
179   2     10.73228     13.27540     12.82964         0.470594      0.434213      0.717491
180   2     13.73153     12.25938     12.66944        -0.497275     -0.498363      0.393179
