ITEM: TIMESTEP
0
ITEM: NUMBER OF ATOMS
180
ITEM: BOX BOUNDS pp pp pp
0.0 15.3362549999999995 
0.0 14.7573100000000004
0.0 29.7984842388000004
ITEM: ATOMS id type x y z fx fy fz
1   2      0.02371     14.61852     29.34474         0.357163      0.178871      0.122921
2   2      2.66575      1.61401     29.09184        -0.499170     -0.159503      0.447477
3   2      1.61412      0.28305      2.03488         0.426774     -0.803352     -0.257261
4   2      4.47759      1.56091      2.47073        -0.230426      0.233609      0.010057
5   2      1.05307      1.59433      4.43862        -0.902104     -0.925874      0.538247
6   2      3.43114     14.58268      4.49704        -0.327162      1.129974      0.840940
7   2     15.32594     14.69776      7.09582        -0.902785     -0.419715     -0.076800
8   2      2.20006      1.29004      7.22932         1.078910      1.390678     -0.330479
9   2      1.61655      0.20593      9.78243         0.149354     -0.574083     -0.098479
10   2      4.13295      1.54737      9.39834         0.029954      0.048008      0.525746
11   2      0.77425      1.57522     12.32384         0.354764     -0.349719     -0.287090
12   2      3.31361     14.73813     12.07474         0.182020     -0.190204     -0.044267
13   2     15.12549      2.72890     29.50534         0.596616     -0.300856     -0.978359
14   2      2.73164      4.37629     29.47174        -0.174938      0.256944     -0.017561
15   2      1.84868      2.92809      1.99510         0.678824      0.684625      0.062546
16   2      4.34931      4.61357      2.15869        -0.288395     -0.354912      1.084593
17   2      0.75943      4.34696      4.54398        -0.212856      0.474218     -0.035351
18   2      3.27785      3.01608      4.78550         0.986777      0.014965     -0.251471
19   2     15.06126      2.97241      7.03928         1.543992      0.281163      1.018414
20   2      2.58452      4.32109      7.33855        -0.496572     -0.547414     -0.211426
21   2      1.63112      3.07004      9.91994         0.326221      0.017859     -0.756739
22   2      4.53543      4.49487      9.62326        -1.050748     -0.875475      0.469271
23   2      0.99822      4.50213     12.19434        -0.082715      0.307841      0.111894
24   2      3.51293      2.88789     12.11094        -0.089041      0.066136     -0.058577
25   2      0.12711      5.81158     29.53584        -0.175769      0.629405     -0.779235
26   2      2.57548      7.49382     29.53474        -0.485731     -0.009433     -0.092061
27   2      1.81204      5.97882      1.95234        -0.009747     -0.063748      0.833782
28   2      4.18704      7.53300      2.43097        -0.053153     -0.790599     -0.043794
29   2      1.00478      7.33198      4.41251        -0.509370     -0.142729      0.086995
30   2      3.25277      5.80572      4.93156         0.976760     -0.511726     -1.223723
31   2      0.07486      6.06329      7.02216        -0.163033     -0.717734      0.226148
32   2      2.56674      7.30441      6.98918        -0.227060      0.820615      0.941107
33   2      1.91959      5.91322      9.47008        -0.523601      0.223775      0.551913
34   2      4.40604      7.33906      9.72528        -0.707282      0.954221      0.119198
35   2      0.87726      7.37365     12.16664         0.235207     -0.408344     -0.150878
36   2      3.65926      5.87516     12.17214        -0.599275      0.241624     -0.099797
37   2     15.23070      8.82333      0.02326         0.807175     -0.255653     -0.600254
38   2      2.47533     10.46543      0.03446         0.358078     -0.265773     -1.023219
39   2      1.72902      9.20112      2.43022        -0.884139     -0.571264     -0.066854
40   2      4.11487     10.43513      2.22832         0.930702      0.997646      0.926710
41   2      0.92514     10.21917      4.93351        -0.048227      0.211761     -0.759043
42   2      3.60383      8.84426      4.71670        -0.846003      0.041492      0.357065
43   2      0.00378      8.88612      7.22332        -0.073597     -0.194847      0.152810
44   2      2.62024     10.46241      7.14508         0.405543     -0.396834      0.228279
45   2      1.68824      8.83026      9.36828         0.503814     -0.154309      0.566435
46   2      4.02804     10.22149      9.84475         0.410439      0.364635     -0.159823
47   2      0.98671     10.16944     12.03184        -0.377010      0.647158      0.060820
48   2      3.31911      8.81211     12.35294         0.605927     -0.432393     -0.214325
49   2      0.10435     11.67576      0.03126        -1.156467      0.434736     -0.870550
50   2      2.71488     13.42994     29.31324        -0.574417      0.250216      0.240479
51   2      1.62482     12.19283      2.15964         0.365796     -0.111188      0.993377
52   2      4.12657     13.42652      2.19500         0.567454     -0.276812     -0.820187
53   2      0.90334     13.27339      4.70418        -0.190841      0.101406     -0.179567
54   2      3.47473     11.82556      4.70670        -0.367883     -0.486634     -0.123423
55   2      0.02412     11.77593      7.11602         0.000196      0.051253      0.300096
56   2      2.57438     13.28396      7.13208        -0.338953     -0.148287     -0.168741
57   2      1.52649     11.91517      9.38867         0.334628      0.039888      0.937824
58   2      4.15949     13.25688      9.59582        -0.342062      0.064019      0.496352
59   2      0.71382     13.27339     11.91704         0.701082     -0.045443      0.392951
60   2      3.37384     11.72549     12.42374         0.007485      0.230636     -0.511629
61   2      5.04038      0.27318     29.52774         0.439573     -0.395471      0.181596
62   2      7.71718      1.41807     29.64744        -0.171154      0.054927     -0.173375
63   2      6.83049     14.68034      2.37833        -0.143933      0.266945     -0.358981
64   2      9.31955      1.40924      2.11665         0.059124      0.419349     -0.012006
65   2      6.16199      1.49734      4.97827        -1.380745      0.199122     -1.250218
66   2      8.41235      0.14321      4.71190         1.199570     -0.741443      0.151581
67   2      4.90491     14.70007      7.20296         0.654897      0.424731     -0.197256
68   2      7.59481      1.58903      7.22889         0.372023     -0.028043      0.896393
69   2      6.74550      0.05622      9.95094         0.067436     -0.703982     -1.239155
70   2      9.32153      1.30073      9.59049        -0.303675      0.380509      0.000357
71   2      5.98577      1.44090     12.08064        -0.576941      0.032917      1.051067
72   2      8.62930     14.54402     12.13664         0.058342      0.157339      0.033410
73   2      5.27752      3.09740     29.76954        -0.451163     -0.301143     -0.661099
74   2      7.60247      4.65267     29.63394         0.618690      0.029206     -0.195946
75   2      6.90866      3.07229      2.18459        -0.110309     -0.485920      0.621385
76   2      9.26218      4.44984      2.33906         0.989709      0.163324     -0.191014
77   2      6.08980      4.36338      4.63582        -0.420900      0.158470      0.194552
78   2      8.59559      3.11349      4.76157        -0.570586     -0.048412     -0.051204
79   2      4.97543      2.84531      7.03547         0.170717      0.494019      0.469018
80   2      7.85859      4.58505      7.33259        -0.949840     -0.810369     -0.510457
81   2      6.75309      2.82321      9.76822         0.272426      0.399094     -0.788870
82   2      9.31112      4.19711      9.68806         0.383927     -0.028533      0.181145
83   2      5.99188      4.37871     12.19734         0.182931     -0.146967     -0.002941
84   2      8.47406      2.81891     12.10684         0.377126      0.003809      0.085456
85   2      5.11093      6.18299      0.01976         0.164391     -0.113497     -0.635445
86   2      7.93558      7.90190      0.05576        -1.298012     -0.953354     -0.115287
87   2      6.91617      6.04051      2.21056        -0.164683      0.114419      0.639199
88   2      9.44382      7.37033      2.49102        -0.064246      0.014605      0.161647
89   2      5.98532      7.15379      4.89393         0.160801      0.140413     -0.261710
90   2      8.87410      6.10459      4.92064        -0.454387     -0.343560     -0.048313
91   2      5.10022      5.83637      7.34002         0.307945      0.079216     -1.082853
92   2      7.67434      7.41076      7.23272        -0.404986      0.279441     -0.413941
93   2      6.78410      6.03292      9.62276         0.250649     -0.541548      0.266058
94   2      9.13458      7.26881      9.54417         0.799403      0.969240      0.606761
95   2      6.16743      7.36176     12.21464        -0.320195      0.095953     -0.100852
96   2      8.45995      5.77223     11.96664         0.126276     -0.193872      0.344043
97   2      4.89490      8.95401      0.07376         0.832082      0.324238     -0.842009
98   2      7.43020     10.58876     29.78244        -0.066549      0.086965      0.165939
99   2      6.66950      8.85057      2.44599         0.348271      0.401909      0.403651
100   2      9.18058     10.29710      2.38643         0.047561     -0.087478      0.185157
101   2      5.89200     10.30475      4.87150         0.638201     -0.032335      0.185637
102   2      8.61373      9.00050      4.97815        -0.565957      0.057273     -1.203095
103   2      4.95867      8.81152      7.19181         0.465807      0.135060      0.506341
104   2      7.61807     10.31210      7.36654         0.062545      0.635741     -0.520447
105   2      6.78168      9.11476      9.62216        -0.440830     -0.421133      0.621097
106   2      9.40920     10.39546      9.67506         0.154625     -0.189566     -0.230135
107   2      5.83857     10.14024     12.43904         0.108790      0.256870     -0.376508
108   2      8.58818      8.97147     12.00244        -0.978976     -0.278568      0.229660
109   2      5.01768     11.94617     29.36944         0.140053      0.019033      0.465889
110   2      7.54272     13.36470     29.57584        -0.042969      0.102424      0.189727
111   2      6.60280     11.88647      2.61145         0.215229     -0.442529     -0.965541
112   2      9.45714     13.27309      2.40194        -1.051766     -0.064739      0.268139
113   2      5.92602     13.29886      4.85416        -0.072468      0.481639      0.495983
114   2      8.34087     11.90389      4.84881         0.736766     -0.132612      0.230551
115   2      5.19906     11.86352      7.35395        -0.033981     -0.504186      0.022801
116   2      7.58407     13.42622      7.42154         0.041212     -0.017880     -0.177942
117   2      6.65789     11.94305     10.03684         0.507298     -1.165311     -1.836844
118   2      9.29262     13.17865      9.64736        -0.118423     -0.128935      0.098273
119   2      5.91474     13.15288     12.15114        -0.776384      0.851640      1.612847
120   2      8.45671     11.61273     12.29964         0.139474      0.823926     -0.104714
121   2     10.37569     14.31619     29.62154        -0.330674      1.794374     -0.534115
122   2     12.64020      1.30117     29.62324         0.010738      0.172438     -0.412099
123   2     11.80529      0.03699      2.14822         0.704170     -0.026471      0.777122
124   2     14.43425      1.64874      2.19678        -0.265581     -0.605285      0.675311
125   2     10.97411      1.57521      4.41563         0.303418     -1.187058      0.283071
126   2     13.56853     14.52751      4.63634         0.121989      1.035457      0.249689
127   2     10.24249     14.73682      7.07308        -0.300988     -0.403689     -0.129771
128   2     12.74681      1.26602      7.34628        -0.075982      0.090054     -0.458155
129   2     11.68367     14.62064      9.63015         0.784414      0.109891     -0.290853
130   2     14.54842      1.54143      9.49816        -0.308644      0.040662      0.366569
131   2     11.17214      1.68735     12.12384        -0.208087     -0.436854      0.297813
132   2     13.58051     14.74568     12.25574         0.043824      0.291384     -0.195963
133   2     10.05403      2.92435     29.20534         0.102208      0.167437      0.644743
134   2     12.63365      4.18172     29.38834        -0.056776      0.358418      0.158675
135   2     12.00674      3.08989      2.15220        -0.296517     -0.093457      0.064415
136   2     14.79095      4.32428      1.84647        -0.906329      0.919834      1.405573
137   2     11.12472      4.23907      4.67670         0.517992      1.370379      0.055918
138   2     13.59642      2.73610      4.90501        -0.509573     -0.208519     -1.386367
139   2     10.24128      2.74308      7.04685        -0.031129      0.456511      0.475572
140   2     12.62771      4.26647      7.32782        -0.040743      0.382555      0.046295
141   2     11.86670      2.73336      9.69829         0.238354      0.737792     -0.335682
142   2     14.51348      4.50108      9.63137        -0.120540      0.263872     -0.185195
143   2     11.10529      4.56653     12.21464         0.104837     -0.154469     -0.446778
144   2     13.76526      2.97048     12.09754        -0.422065      0.262826     -0.113248
145   2     10.25618      5.93489     29.67544        -0.402312     -1.028215      0.013428
146   2     12.72577      7.17373     29.50484         0.872842     -0.192519      0.151102
147   2     12.09725      5.89856      2.27900        -0.137940     -0.400427      0.191949
148   2     14.44824      7.48968      2.22684         0.199352     -0.543122      0.593729
149   2     11.38074      7.38187      5.01109        -0.977213     -0.739107     -0.206248
150   2     13.66830      5.75269      4.74980         0.068133     -0.170075     -0.187217
151   2     10.22608      5.85971      7.49939         0.901281     -0.071169     -0.789053
152   2     12.79695      7.20466      7.36457         0.649030     -0.480323     -0.494544
153   2     11.93426      5.99651      9.77568         0.304591     -1.256631      0.365876
154   2     14.54691      7.58467      9.72424        -0.121737     -1.163897     -0.074757
155   2     10.72393      7.44418     11.89764         1.245797     -0.465202      0.338842
156   2     13.73405      5.93723     12.21134        -0.114284     -0.461176     -0.372347
157   2     10.41042      8.64619      0.00926         0.766581      1.351307      0.095312
158   2     12.82081     10.06655      0.18776        -0.519923      0.549369     -0.182911
159   2     11.90858      8.70052      2.64837         0.086595      0.478199     -0.709256
160   2     14.40737     10.48234      2.49000         0.162677      0.017333      0.354883
161   2     11.42655     10.31129      4.86317        -1.290883      0.409350     -0.173334
162   2     13.76103      8.69088      4.96503         0.785281      0.152268     -0.628002
163   2     10.22236      8.97266      7.09285         0.154511     -0.107276      0.872066
164   2     12.82917     10.25280      7.25105         0.048749      0.358380      0.682046
165   2     11.82110      8.66259      9.37590        -0.330365      1.210547      1.079955
166   2     14.51489     10.29368      9.84664         0.114394      0.439095     -0.305115
167   2     11.27452     10.24757     12.10104        -0.340504     -0.107093      0.315120
168   2     13.62944      8.69164     12.26984        -0.017209      0.391763     -0.124496
169   2     10.04970     11.78841     29.79464        -0.053470     -1.905496      0.005517
170   2     12.99740     13.10959     29.74644        -0.510545     -0.287362     -0.227138
171   2     11.73774     11.72247      2.38058         0.669855     -0.251931     -0.088031
172   2     14.48378     13.58367      2.21375         0.001563     -0.481705      0.287018
173   2     11.08032     13.28436      4.74082        -0.340856     -0.085133      0.233156
174   2     13.69931     11.79214      4.90953         0.282388     -0.035532     -0.660595
175   2     10.16064     11.88386      7.18246         0.138987     -0.061839     -0.030517
176   2     12.95652     13.18751      7.33575        -0.866137     -0.084555     -0.099275
177   2     12.07802     11.56371      9.83530        -0.404579      0.187466     -0.995745
178   2     14.26703     13.34195      9.79535         0.280144      0.130068     -0.226182
179   2     11.19278     13.21359     11.90144        -0.298293     -0.118764      0.843265
180   2     13.78871     11.70797     12.35044        -0.235754     -0.171578     -0.231724
