ITEM: TIMESTEP
0
ITEM: NUMBER OF ATOMS
180
ITEM: BOX BOUNDS pp pp pp
0.0 15.3362549999999995 
0.0 14.7573100000000004
0.0 29.7984842388000004
ITEM: ATOMS id type x y z fx fy fz
1   2      0.06630     14.70762     29.74684        -0.026519     -0.224548     -0.053585
2   2      2.50324      1.56903     29.53804         0.253502     -0.021862      0.148641
3   2      1.77700      0.01474      2.39374         0.087502     -0.079027     -0.306502
4   2      4.30073      1.33034      2.19186        -0.004633      0.159611      0.200296
5   2      0.89855      1.59603      4.69969         0.484971     -0.200361      0.350526
6   2      3.45321     14.75031      4.77247        -0.317717      0.193535      0.032655
7   2      0.04908      0.13807      7.10801         0.095994     -0.270641      0.260029
8   2      2.45697      1.61680      7.27571         0.290955      0.004737      0.167324
9   2      1.59633      0.21449      9.73849         0.115762     -0.270253     -0.843375
10   2      4.09788      1.43282      9.96964         0.870814      0.273515     -0.778425
11   2      0.89600      1.42281     12.28844        -0.145968      0.533803     -0.150139
12   2      3.39464      0.05149     12.18484         0.047038     -0.338221      0.527042
13   2     15.31698      2.78186      0.15916         0.279925      0.177011     -0.829801
14   2      3.07808      4.42894     29.49934        -1.252491     -0.252688      0.213375
15   2      1.93838      2.92730      2.28791         0.026765     -0.166554      0.136185
16   2      4.37588      4.40725      2.30166        -0.053019     -0.549402     -0.136757
17   2      0.97465      4.39880      4.73517        -0.398558      0.147409      0.502453
18   2      3.55696      3.03152      5.01323        -0.829609     -0.825233     -0.560766
19   2     15.27469      3.02032      7.26730         0.300553      0.155309      0.215111
20   2      2.53423      4.58263      7.20555        -0.205262     -0.186880      0.559816
21   2      1.81875      3.03617      9.87438        -0.707049      0.457916     -0.423366
22   2      4.43104      4.32570      9.67731        -1.165915      0.712193     -0.140423
23   2      0.89447      4.83376     12.18544        -0.112767     -0.514815     -0.149078
24   2      3.35105      3.11327     12.26534         0.014468     -0.068037      0.113053
25   2     15.31839      5.85380     29.69764         0.046141     -0.111852      0.055969
26   2      2.41352      7.19214      0.00506         0.570437     -0.117879     -0.648965
27   2      1.78679      5.72505      2.44468        -0.091089      0.145093     -0.399942
28   2      4.20200      7.18993      2.23316         0.509557      0.413940     -0.009595
29   2      0.80745      7.44846      4.68231         0.120009     -0.172151      0.724188
30   2      3.42255      5.90924      4.87314        -0.109949      0.439442     -0.230398
31   2     15.28023      6.09508      7.26437         0.162291     -0.071028     -0.394919
32   2      2.56113      7.50812      7.28373        -0.667788     -0.292448     -0.208508
33   2      1.74140      5.91950      9.64267        -0.118665      0.147667      0.021191
34   2      4.19971      7.26741      9.64618         0.048006      0.376971      0.007348
35   2      1.00068      7.58721     12.21954        -0.034037     -0.090714     -0.375671
36   2      3.54154      6.05395     12.13934        -0.561745      0.361568      0.053357
37   2      0.13395      8.76927     29.46404        -0.492696      0.152579      0.391285
38   2      2.63847     10.13974     29.71254         0.017620      0.313402      0.130536
39   2      1.76166      8.58401      2.31179        -0.654174      0.883535     -0.175139
40   2      4.33618     10.31552      2.33882        -0.169314      0.038312     -0.595094
41   2      0.68391     10.41519      4.58029         0.147906      0.089588      0.364517
42   2      3.34941      8.96570      4.57494        -0.225945     -0.774863      0.554252
43   2     15.29513      8.98981      7.21823         0.072609      0.135924     -0.474619
44   2      2.45486     10.40804      6.92650        -0.073606     -0.226095      0.886073
45   2      1.53519      9.02735      9.62914         0.725442     -0.089192     -0.043080
46   2      4.23383     10.40492      9.63710        -0.081897     -0.394610     -0.119548
47   2      0.83131     10.31925     12.08134         0.091338      0.509462     -0.051822
48   2      3.54737      9.05760     12.15964        -0.045569     -0.076787     -0.216905
49   2      0.09962     11.66448     29.60564         0.213727     -0.128120      0.201946
50   2      2.57066     13.45259     29.66294        -0.227570     -0.768281      0.136233
51   2      1.71908     11.78932      2.33576         0.492890     -0.232517     -0.441659
52   2      4.38708     13.13657      2.33135        -0.649847      0.149073     -0.189872
53   2      0.82419     13.39350      4.65186        -0.030026     -0.296360      0.465264
54   2      3.32828     11.81228      4.75789        -0.062993      0.396071     -0.564915
55   2      0.12731     12.04977      7.19452        -0.145721     -0.219120      0.014793
56   2      2.69883     13.44726      7.31889        -1.787960      0.383056     -0.395265
57   2      1.95097     11.89926      9.65698        -0.867608     -0.015446     -0.050845
58   2      4.34080     13.30923      9.57911        -0.123104      0.392367      1.179608
59   2      0.85681     13.40507     11.83934         0.147738     -0.741239      1.052085
60   2      3.41726     11.94416     12.53924         0.032307     -0.012548     -0.664776
61   2      5.00453     14.63091     29.51854         0.690319      0.091439      0.045866
62   2      7.86415      1.54160      0.03266        -0.076565     -0.421094     -0.333670
63   2      6.76080     14.61832      2.22323         0.526247      0.278640      0.069205
64   2      9.51338      1.39415      2.48864        -0.472804      0.009856     -0.341476
65   2      5.94623      1.28309      4.71629         0.290751      0.275043      0.072492
66   2      8.59820     14.70732      4.83090        -0.952311     -0.184245     -0.613495
67   2      5.12477     14.73229      7.26799         0.414465      1.413111     -0.349135
68   2      7.65222      1.50651      7.17340        -0.163888      0.091159      0.094763
69   2      6.72093      0.15499      9.62741         0.216822     -0.228967      0.156832
70   2      9.30926      1.39999      9.67301         0.169080      0.266503     -0.450560
71   2      6.10622      1.68176     12.28014        -1.225144     -0.138069     -0.106301
72   2      8.50787      0.23281     12.27764        -0.612762     -1.076445     -0.064220
73   2      5.19709      2.76086     29.48014         0.602330     -0.204084      0.247823
74   2      7.91954      4.39174     29.53174        -0.356917      0.298959      0.218599
75   2      6.79167      2.75855      2.28325         0.132562      0.347515      0.233005
76   2      9.31377      4.38245      2.34617         0.294042     -0.525189      0.045980
77   2      5.90181      4.24774      4.64027         0.905954      0.459730      0.205834
78   2      8.51363      2.98929      4.81710        -0.083025     -0.222248     -0.513912
79   2      5.09879      2.91684      7.34317         0.002396     -0.212464     -0.294423
80   2      7.70816      4.53960      7.04959        -0.130448     -0.126092      0.443818
81   2      6.74496      3.00912      9.57100         1.031482     -0.298454      0.005694
82   2      9.51723      4.37387      9.37699        -0.200330     -0.208876      0.476744
83   2      5.81736      4.58394     12.11754         0.540513     -0.367551      0.302097
84   2      8.34823      3.05415     11.93664         1.005549      0.619962      0.118183
85   2      5.23054      5.96810     29.44884         0.762525      0.261951      0.161294
86   2      7.65270      7.46460     29.35744         0.342669     -0.478479      0.479095
87   2      6.83738      5.79301      2.16794         0.002036      0.052193     -0.189903
88   2      9.33975      7.20044      2.50635         0.407104      0.723289     -0.885561
89   2      5.89120      7.24658      4.53712         0.121046     -0.005003      0.503928
90   2      8.43411      5.92582      4.70140        -0.235920     -0.658488      0.503629
91   2      5.19959      5.86605      7.13181        -0.201413      0.011747      0.109990
92   2      7.48369      7.57691      7.28489         0.289067     -0.717258     -0.571748
93   2      6.85184      5.93853      9.62076        -0.115095     -0.274875     -0.113875
94   2      9.30376      7.24711      9.60850         0.104546      0.077251      0.168432
95   2      6.11990      7.52281     12.11634        -0.831317      0.043217     -0.119980
96   2      8.33896      5.82784     12.19864         0.690261      0.250280     -0.329885
97   2      5.20376      8.84488     29.63574        -0.510035     -0.017002     -0.035825
98   2      7.58620     10.29277     29.77874         0.212586      0.380477     -0.241619
99   2      6.72963      8.75049      2.32070         0.425806     -0.004226     -0.039631
100   2      9.25245     10.27948      2.36723         0.239616     -0.216164      0.369615
101   2      5.86920     10.11105      4.77121         0.537626      0.413457      0.149792
102   2      8.62422      8.67906      4.88253        -0.577685      0.712053     -0.491302
103   2      4.92971      8.80591      7.15920         0.221781      0.517961     -0.123039
104   2      7.54368     10.42919      7.14935        -0.184496     -0.090510      0.162169
105   2      6.56796      8.86559      9.51831         0.302983      0.412897      0.615633
106   2      9.35389     10.28482      9.52829        -0.829339      0.970551      0.231461
107   2      5.99420     10.63185     12.10214        -0.465613     -0.209327     -0.125370
108   2      8.45304      8.89445     11.84544         0.326297      0.033613      0.231923
109   2      5.07995     11.73435     29.29234        -0.076310      0.151184      0.576742
110   2      7.65223     13.26654     29.41684        -0.249500      0.147453      0.410026
111   2      6.86356     11.81681      2.40017        -0.143244     -0.414006     -0.111224
112   2      9.33492     13.20755      2.31191        -0.149005      0.342044      0.099335
113   2      5.87295     13.15177      4.85204         0.563386      0.282563     -0.614491
114   2      8.38163     11.72972      4.83296         0.336874     -0.044828     -0.301545
115   2      4.93926     12.02732      7.13047         0.858275     -1.983101      0.257405
116   2      7.76482     13.29956      7.24944        -0.047998     -0.075305      0.018132
117   2      6.69982     11.86996      9.48045         0.616191     -0.201743      0.444312
118   2      9.25883     13.28607      9.77554         0.044668     -0.036767     -0.228033
119   2      6.00456     13.65807     12.19214        -0.105220     -0.718404     -0.135450
120   2      8.47080     11.74311     12.13874         0.215132      0.455251     -0.196392
121   2     10.33723     14.74044     29.63614        -0.048273      0.000766      0.142189
122   2     12.92823      1.34261     29.69294        -0.521725      0.003494      0.156738
123   2     11.98631     14.56305      2.26739         0.073318      0.484909      0.092197
124   2     14.51831      1.38537      2.49941        -0.097775      0.070779     -0.648309
125   2     11.04116      1.33198      4.85555         0.699564      0.462739     -0.610716
126   2     13.67515      0.04988      4.67242        -0.378843     -0.525806      0.445371
127   2     10.14836      0.02209      7.12466         0.464026     -0.669036      1.103266
128   2     12.79262      1.31772      7.17650        -0.038533      0.635018      0.148376
129   2     11.94744     14.74709      9.59857        -0.921729      0.013194     -0.199824
130   2     14.39680      1.48272      9.68782         0.635740      0.523628     -0.622076
131   2     10.83678      1.42188     12.15554         1.078756      0.185499     -0.105174
132   2     13.45819      0.17271     11.96704        -0.044390     -0.266630      0.753352
133   2     10.39693      2.91121     29.72444         0.170123     -0.050173      0.192346
134   2     12.87810      4.38311     29.77164        -0.100105     -0.280191     -0.172645
135   2     11.96496      2.79212      2.55176         0.137748      0.083375     -0.051508
136   2     14.66248      4.29235      2.30769        -0.404130     -0.053325      0.662488
137   2     11.03542      4.57626      5.07445         0.167476     -0.826343     -1.463849
138   2     13.68079      2.96390      4.94420        -0.331495     -0.059944     -0.402035
139   2     10.28458      2.85060      7.06682        -0.153961      0.148905      0.971071
140   2     12.75628      4.48149      7.28185         0.158985     -0.055755      0.276076
141   2     11.95943      2.85142      9.66774        -0.339182      0.359441     -0.120763
142   2     14.52677      4.58102      9.53795         0.307443     -0.340570      0.358764
143   2     11.07297      4.18827     12.19454        -0.169063      0.434159     -0.424101
144   2     13.84549      3.02796     11.97224        -0.028766      0.185630      0.262984
145   2     10.38445      5.91431     29.74944        -0.264122      0.129896      0.025733
146   2     12.89118      7.31750     29.58164        -0.112623      0.208206      0.348237
147   2     11.97815      5.60632      2.36059        -0.487009      0.343763      0.351863
148   2     14.35824      7.06192      2.50586         0.212391      1.137759     -0.862318
149   2     11.17405      7.29986      4.87800        -0.058603      0.402772     -1.108120
150   2     13.67867      5.78137      4.76006        -0.018771     -0.064322      0.773696
151   2     10.19971      6.02883      7.19922        -0.456171     -0.155450      0.677945
152   2     12.62369      7.44899      7.17252         0.880154     -0.051987      0.510277
153   2     12.07027      5.94192      9.75713        -0.850835     -0.106822     -1.152521
154   2     14.42680      7.69080      9.56585        -0.148341     -0.625291      0.077032
155   2     10.96938      7.32870     11.93264        -0.524101     -0.112786      0.335914
156   2     13.49021      5.84933     11.99084         0.703131      0.002508      0.819241
157   2     10.16326      8.86210      0.00266        -0.148504     -0.272985     -0.148337
158   2     12.68087     10.20508     29.75964         0.302390      0.040995     -0.213884
159   2     11.82140      8.80669      2.30192         0.176448     -0.335405      0.406021
160   2     14.47049     10.12273      2.24615         0.054533     -0.205417     -0.186965
161   2     11.13328     10.12736      4.83687        -0.498049      0.274780     -0.727529
162   2     13.62985      8.95022      4.78194         0.189916     -0.499196     -0.124503
163   2     10.04960      8.85501      7.27361         0.115617     -0.041699     -0.312500
164   2     12.76524     10.34210      7.27323         0.465349      0.307974     -0.134383
165   2     11.71448      8.97577      9.50376         0.821387     -0.373817      0.607785
166   2     14.39186     10.56067      9.59310         0.143630      0.125593      0.222944
167   2     11.02555     10.33848     12.09914         0.052115      0.047366     -0.075947
168   2     13.37886      8.70757     11.93384         0.487607      0.559296      0.233656
169   2     10.09470     11.88657     29.68964         0.231104     -0.266998     -0.060076
170   2     12.97475     13.08210     29.67274        -0.344810      0.236800     -0.132513
171   2     11.85986     11.78882      2.24569         0.003347     -0.572430      0.113719
172   2     14.58406     13.04546      2.24733        -0.325037      0.337577      0.277930
173   2     11.01730     13.20513      4.67034        -0.160817     -0.030700      0.096377
174   2     13.39638     11.85486      4.70647         0.881913     -0.075680     -0.007657
175   2     10.36401     11.66418      6.99741        -0.570461      0.858068      0.706024
176   2     12.86451     13.30349      7.14362        -0.185945     -0.406032      0.183907
177   2     11.84022     11.96782      9.78146        -0.002724     -0.327419     -0.311193
178   2     14.42740     13.39752      9.74003         0.106287     -0.469193     -0.732593
179   2     10.93535     13.21288     12.26854         0.151745      0.213733     -0.230998
180   2     13.77593     11.83624     12.22594        -0.409408     -0.072611     -0.339659
