ITEM: TIMESTEP
0
ITEM: NUMBER OF ATOMS
180
ITEM: BOX BOUNDS pp pp pp
0.0 15.3362549999999995 
0.0 14.7573100000000004
0.0 29.7984842388000004
ITEM: ATOMS id type x y z fx fy fz
1   2     15.18358      0.41523     29.63414        -0.024612     -1.151369      0.036485
2   2      2.56016      1.51059     29.35094         0.023617     -0.140946      0.620850
3   2      1.70550      0.28919      2.19050        -0.217413     -0.598568      0.042913
4   2      4.23501      1.51459      2.32969         0.207529     -0.405805     -0.094905
5   2      0.86904      1.65825      4.75761        -0.384264      0.204714     -0.114714
6   2      3.32460      0.06629      4.70569         0.616834     -0.487525      0.199883
7   2      0.19345      0.00850      7.06734        -0.591989      0.482893      0.192596
8   2      2.70913      1.44171      7.30193        -0.116586      0.286126     -0.678091
9   2      1.66819     14.74870      9.51325         0.372717     -0.619725      0.089957
10   2      4.40132      1.33017      9.52930        -0.603849      0.187333      0.124003
11   2      0.71819      1.45493     12.12174         0.033671     -0.378963      0.221133
12   2      3.20743     14.55248     11.99444         0.348179     -0.189728     -0.100524
13   2     15.31366      3.06792     29.63904        -0.320403      0.947727     -0.205692
14   2      2.39613      4.46822     29.77434         0.512150     -0.636940     -0.385993
15   2      1.68017      3.09341      2.26009        -0.048303      0.176021      0.482071
16   2      4.32881      4.51787      2.37483        -0.509102     -0.043306      0.918558
17   2      1.07975      4.52253      4.76023        -0.283095      0.011775     -0.014915
18   2      3.43597      2.84711      4.68035        -0.073281      1.013541      0.377804
19   2      0.05975      3.12930      7.15433        -0.607096     -0.894657     -0.029369
20   2      2.30471      4.55003      7.45908         1.221048     -0.147574     -0.315255
21   2      1.64088      2.73155      9.69031         0.481924      1.193365     -0.500678
22   2      4.17496      4.11946      9.68570         0.330126      0.501586     -0.102942
23   2      0.86368      4.30880     12.16884        -0.008830     -0.283345     -0.040530
24   2      3.23394      2.62544     11.93264         0.679879      0.366983      0.615011
25   2      0.11503      5.97435     29.58614        -1.112136     -0.135005      0.039160
26   2      2.56869      7.18395     29.55974         0.327402      1.071239      0.200685
27   2      1.68402      6.03630      2.43466         0.526032     -0.261961      0.059002
28   2      4.26072      7.42238      2.41641        -0.300885      0.041272     -0.178683
29   2      0.72485      7.52576      4.81930         0.990242     -0.313525      0.254194
30   2      3.46271      6.06292      5.10843        -0.007147     -0.478587     -0.550086
31   2     15.23070      6.00915      7.11433         0.744338      0.050343      0.562972
32   2      2.44557      7.38336      7.32437         0.031462      0.200107      0.282679
33   2      1.78962      5.86290      9.84661        -0.016715      0.067608     -0.174263
34   2      4.33603      7.17095      9.86301         0.106644      0.027762     -0.952904
35   2      0.88695      7.07598     12.24534         0.223789      0.165781      0.277295
36   2      3.52790      5.85012     12.14484         0.033591     -0.411667      0.344191
37   2      0.18016      8.81348     29.47794        -0.503599      0.346458     -0.186906
38   2      2.60757     10.35408     29.71584        -0.077839      0.297011     -0.432361
39   2      1.43383      9.02151      2.10751         0.856998     -0.323501      0.542502
40   2      4.16785     10.40230      2.25246         0.218474     -0.047217      0.296619
41   2      0.84732     10.48224      4.59690        -0.458033     -0.298008      0.963194
42   2      3.20803      8.88148      4.58248         0.311601     -0.261040     -0.089547
43   2     15.26312      9.00882      7.25694         0.073162     -0.060610      0.184723
44   2      2.65321     10.21243      7.02151        -1.151914     -0.638459      0.651199
45   2      1.86664      8.94199      9.64568        -1.071303     -0.684174     -0.218653
46   2      4.16491     10.21122      9.43014         1.079174      0.490845      0.541259
47   2      0.68980      9.85986     11.98654         0.078489      0.491807      0.441659
48   2      3.52053      8.76053     12.09294        -0.152392      0.356148      0.063993
49   2      0.07898     12.09276     29.61634        -1.833925     -1.043382      0.163808
50   2      2.27658     13.31557     29.72674         2.019891      1.059425      0.195910
51   2      1.60971     11.79133      2.38141         0.269945      1.192081     -0.563083
52   2      4.33378     13.23936      2.45992        -0.342192      0.130967     -0.037418
53   2      0.88383     13.57975      4.67519        -0.204014     -0.937029     -0.431312
54   2      3.37622     11.72459      4.89057         0.489360      0.703384     -1.502691
55   2      0.04103     11.90530      7.23528         0.012255     -0.666327     -0.302479
56   2      2.59730     13.08009      7.13526         0.127985      0.738511      0.055777
57   2      1.81734     11.84439      9.67914        -0.232403     -0.745216     -0.477239
58   2      4.17296     13.28547      9.45222         0.823938     -0.354195      0.305088
59   2      0.72337     13.14553     11.73344        -0.189288      0.143085      1.212756
60   2      3.52600     11.66891     12.10724         0.116341      0.049497     -0.372019
61   2      5.16288     14.70883     29.70544        -0.865929      0.209975      0.151196
62   2      7.53849      1.40322      0.06286         0.059892      0.396125     -0.402037
63   2      6.77674     14.74981      2.54773         0.073301     -0.042157     -0.058902
64   2      9.31434      1.58612      2.14962         0.145694     -0.133654      0.676150
65   2      5.89606      1.56103      4.82211         0.637963     -0.419665     -0.752293
66   2      8.58601      0.04495      4.79555        -0.158216      0.647930     -0.072637
67   2      5.24267     14.72917      7.11253        -0.722048     -0.582972     -0.253330
68   2      7.65484      1.51256      7.15867         0.907474     -0.187874     -0.189822
69   2      6.82360      0.02310      9.50003         0.375289     -0.886610      0.498136
70   2      9.48011      1.07062      9.45962        -0.406547      0.463135      0.119888
71   2      5.99181      1.40788     11.82964        -0.218305     -0.543647      0.856345
72   2      8.66417     14.53234     12.06684        -0.424632      0.490990     -0.136314
73   2      4.99647      2.93381      0.07296         0.099562     -0.288367     -0.586080
74   2      7.45785      4.47414     29.66464         0.324601      0.035076      0.123455
75   2      6.78569      3.06959      2.42095         0.251414     -0.152835      0.057938
76   2      9.26599      4.59549      2.40280        -0.262680      0.276847     -0.195196
77   2      6.05047      4.50013      4.76382        -0.246472     -0.167381      0.055219
78   2      8.65373      3.08896      4.83286        -0.547766     -0.284570     -0.256391
79   2      5.28378      2.83786      7.15328        -0.969605      0.786923      0.484588
80   2      7.65772      4.53301      7.30816         0.216360     -0.882714     -0.195839
81   2      7.00289      2.84098      9.67348        -0.378551      0.481244     -1.013324
82   2      9.50151      4.19437      9.74508        -0.239455      0.107208      0.340431
83   2      5.91809      4.20995     12.09904        -0.574237      0.588560     -0.099368
84   2      8.36584      2.95905     12.00544         0.513026     -0.523282      0.922337
85   2      4.95159      5.75192      0.00916         0.193077      0.631396     -0.626797
86   2      7.94745      7.74742     29.42694        -0.465321      0.225758      0.403661
87   2      6.84219      6.20321      2.06227         0.281871     -0.371718      0.375105
88   2      9.29044      7.71683      2.52113         0.518530     -0.733516     -0.386226
89   2      5.97180      7.28547      4.71225         0.235444      0.198508     -0.253351
90   2      8.57178      5.99056      4.83018        -0.347399     -0.085500     -0.245450
91   2      5.17267      5.64528      7.42727        -0.786242      0.373918      0.081104
92   2      7.61765      7.29779      7.15414         0.341120      0.539186      0.320001
93   2      6.98793      5.78250      9.77657        -0.464164     -0.061694      0.175707
94   2      9.22265      7.41070      9.68622         0.261410     -0.560964     -0.251730
95   2      6.13816      7.52716     12.05384        -0.600771     -0.647863      0.336280
96   2      8.38320      5.79895     12.39914         0.104508      0.086251     -0.339415
97   2      4.98740      8.82502     29.72484         0.211977     -0.130154     -0.169048
98   2      7.78595     10.61675     29.50284         0.016560     -0.620902     -0.255979
99   2      6.79852      8.97824      2.14574        -0.163366     -0.016716     -0.022630
100   2      9.31776     10.49261      2.15748         0.297859      0.043394      0.546554
101   2      5.91811     10.13813      4.63271        -0.613119      0.552771     -0.059139
102   2      8.39710      9.09061      4.74294         0.516561     -0.501531     -0.276599
103   2      5.12180      8.49820      7.09978        -0.288433      0.284516      0.259199
104   2      7.79234     10.38217      7.02939        -0.455015      0.020825      0.781640
105   2      6.64076      8.86885      9.60198         0.425651     -0.308076     -0.377005
106   2      9.62221     10.06554      9.53568        -0.208058      0.933200      0.233761
107   2      6.10273     10.38136     12.21994         0.014707      0.225199     -0.275299
108   2      8.55049      8.71739     12.11464         0.522525      0.651549      0.184839
109   2      5.21784     11.88084     29.52504        -0.653378     -0.285002      0.137675
110   2      7.59334     13.38141     29.54914         0.729106      0.101514      0.148166
111   2      6.81553     11.75137      2.12170        -0.194227      0.711362      0.798112
112   2      9.38317     13.38685      2.38311        -0.237025      0.069913     -0.485936
113   2      6.05955     13.10093      4.89596        -0.164968      0.004016     -0.366126
114   2      8.74657     12.04262      4.84061        -0.487675     -0.535678     -0.614140
115   2      5.10409     11.43434      7.11225         0.929005      0.703152      0.167706
116   2      7.70838     13.36269      7.29656         0.155483     -0.373905     -0.340506
117   2      6.93242     11.58827      9.51999        -0.608421      0.207490      0.038260
118   2      9.29707     12.94367      9.67234         0.615944      0.244963      0.001792
119   2      6.15940     13.28557     11.93334        -0.399124     -0.355903     -0.146802
120   2      8.77237     11.64807     12.22924        -0.474943     -0.530198     -0.149907
121   2     10.26535      0.00971     29.61244        -0.274223     -0.045341      0.205569
122   2     12.51335      1.76337     29.71374         0.214385      0.088468     -0.050650
123   2     11.96043      0.16677      2.28099        -0.184670      0.153852     -0.423899
124   2     14.43203      1.84576      2.22594        -0.206907     -0.445461      0.526959
125   2     11.06250      1.63408      4.52838        -0.204626     -0.405894      0.589530
126   2     13.67565      0.15277      4.68858        -0.133038      0.195739      0.546515
127   2     10.45230     14.68014      7.00230        -0.192147      0.361233     -0.027201
128   2     12.75195      1.45723      7.28537         0.425002     -0.077325     -0.107409
129   2     11.90808     14.66534      9.73851         0.429895     -0.141494     -0.174506
130   2     14.64134      1.48709      9.53230        -1.416255     -0.115132     -0.277283
131   2     10.86316      1.57506     12.08304         0.179273     -0.904172     -0.079543
132   2     13.65804     14.70128     12.08174        -0.284013     -0.590169      0.019791
133   2      9.93933      3.13525     29.62034         0.301121      0.120879      0.113379
134   2     12.76343      4.71133     29.50074         0.017092     -0.126744      0.394669
135   2     11.70804      3.23758      2.32832        -0.064063     -0.399277     -0.381389
136   2     14.05359      4.57360      2.60554         1.172419      0.010483     -0.731235
137   2     11.09421      4.57015      4.93799        -0.027595     -0.199878     -0.194722
138   2     13.48316      3.01700      4.93946         0.525720     -0.120812     -0.101186
139   2     10.12128      2.88423      7.26956         0.509375     -0.402751     -0.088343
140   2     12.77108      4.41066      7.36280        -0.015883     -1.021088     -0.243757
141   2     11.97574      2.85217      9.72877        -0.001104     -0.116624     -0.507485
142   2     14.57681      4.55911      9.60058        -0.051771     -0.446001      0.168592
143   2     10.79641      4.23810     12.46104         0.544820      0.828643     -0.286988
144   2     13.51326      2.69440     11.99334         0.176846      0.399533      0.455029
145   2     10.10708      6.13743     29.67884         0.355193     -0.301635      0.048521
146   2     12.96548      7.57212     29.47144        -0.110943      0.015975      0.420879
147   2     11.75324      6.09368      2.19880        -0.068371      0.340463      0.248155
148   2     14.64416      7.37942      2.43260        -1.299480     -0.060350     -0.664381
149   2     10.97552      7.34025      5.05648         0.531864      0.100444     -1.046565
150   2     13.61867      5.97944      4.83821        -0.396039     -0.071975      0.049498
151   2     10.16990      5.69381      7.53949        -0.117799      0.902000     -0.914150
152   2     12.79292      7.11793      7.29682        -0.521371      1.626551      0.308953
153   2     11.88392      5.75466      9.65471         0.432844      0.423774      1.050377
154   2     14.68373      7.36707      9.87978         0.011707      0.179123     -1.140944
155   2     10.94682      7.12250     12.00454         0.196257     -0.115943      0.184678
156   2     13.57508      5.46466     12.21464        -0.331353      0.027507     -0.185447
157   2     10.51321      9.14365     29.63624        -0.220213     -0.996821     -0.035432
158   2     12.91716     10.57990     29.52714         0.582843     -0.380590      0.121550
159   2     11.99517      8.88023      2.41930         0.028975     -0.142447     -0.415105
160   2     14.31515     10.53369      2.31406         0.300980     -0.208201     -0.375576
161   2     11.00401     10.24606      4.63078         0.323437      0.312693      0.399746
162   2     13.66609      8.79709      4.75640        -0.773969      0.771223      0.309979
163   2     10.15500      8.75008      7.14107         0.000616      0.269412      0.646395
164   2     12.63466     10.17578      7.27248         0.171879      0.085290     -0.269178
165   2     12.16571      8.78867      9.68668        -0.260606     -0.434533      0.045698
166   2     14.44955     10.48526      9.78353         0.691274     -0.328743     -0.357635
167   2     11.24996     10.00571     12.26914        -0.020244      0.198125     -0.190414
168   2     13.59944      8.23891     12.18794        -0.375660      0.749015      0.576257
169   2     10.37438     11.84620     29.64904        -0.301954      0.987447     -0.316352
170   2     12.82494     13.40910     29.52804         0.092658      0.337668      0.281598
171   2     11.90053     11.88506      2.24206        -0.015637      0.017842      0.088955
172   2     14.37213     13.53867      2.39143         0.594486     -0.335099     -0.465891
173   2     11.28288     13.34789      4.54158         0.108295     -0.030595      0.713944
174   2     13.69216     11.74905      4.76746        -0.336057      0.309016      0.404878
175   2     10.23474     11.93349      7.15187         0.349547     -0.736092      0.383315
176   2     12.80903     13.04093      7.34817        -0.308818      0.338222     -0.638813
177   2     12.06624     11.72539     10.00104        -0.518078      0.071460     -0.397969
178   2     14.45298     13.37427      9.48298         0.039380     -0.031329      0.371851
179   2     11.05988     13.17936     12.11444         0.731531      0.140541      0.330970
180   2     13.73938     11.71855     12.68194        -0.202826     -0.064991     -0.845079
