ITEM: TIMESTEP
0
ITEM: NUMBER OF ATOMS
180
ITEM: BOX BOUNDS pp pp pp
0.0 15.3362549999999995 
0.0 14.7573100000000004
0.0 29.7984842388000004
ITEM: ATOMS id type x y z fx fy fz
1   2     15.15358     14.75353     29.33544        -1.041591     -0.607090     -0.934585
2   2      2.70710      1.32550     29.21064         0.106864      0.591512      0.155947
3   2      1.49915     14.73531      1.55978         0.600601      0.333650      1.597408
4   2      4.39405      1.68872      2.13815        -0.859919     -0.102550     -0.244291
5   2      0.94567      1.29536      4.80096         0.931443      0.198059     -0.092523
6   2      3.57474     14.59180      4.75013        -0.351528      0.073229     -0.205016
7   2      0.42217     14.54302      7.26123        -0.535625     -0.222905     -0.203703
8   2      2.65697      1.23477      7.28745        -0.262523      0.033189      0.017877
9   2      1.62854     14.59305      9.93604         0.516631      0.088192     -1.051738
10   2      4.37326      1.17703      9.79921        -2.303938      1.502627      0.063982
11   2      0.62003      1.28555     11.95764        -0.454325      0.109016      0.930302
12   2      3.32534     14.40620     12.13844         0.160901     -0.006573      0.309051
13   2      0.16139      2.70488     29.64694         0.334106      0.690080     -0.443799
14   2      2.67401      4.33965     29.71206        -0.467004      0.154208      0.157270
15   2      1.66106      2.96769      2.27921         0.779526     -0.833870     -0.986618
16   2      4.57664      4.54056      2.21430        -1.460819      0.431395     -0.213116
17   2      1.12178      4.20982      4.49830        -1.127916     -0.131722      1.656355
18   2      3.56286      2.62013      4.69478        -0.292839      0.312845     -0.014152
19   2     15.22234      3.32732      6.95984         0.852428     -0.895535      0.009666
20   2      2.54479      4.00918      7.24806        -0.174683      0.722261     -0.266515
21   2      1.77401      2.73761      9.75912        -0.458033     -0.092471     -1.511568
22   2      4.18543      4.17027      9.62278        -0.188903      0.056539      0.944978
23   2      0.82125      4.15801     11.94064        -0.201998      0.488868      0.385367
24   2      3.08636      2.47057     12.07934         1.233439      0.473993      0.797516
25   2      0.00337      5.56874      0.26916         1.625282      1.236620     -1.490863
26   2      2.17276      7.49567     29.62434         0.152952      0.161165      0.183513
27   2      1.84055      6.12956      2.48294        -0.919021     -1.049423     -0.950654
28   2      4.09566      7.35449      2.36226         1.422545      0.636834     -0.760292
29   2      0.88692      7.40666      4.72459        -0.499490     -0.919584      0.559246
30   2      3.27054      5.63411      4.85452         1.410470      0.508550      0.550191
31   2      0.20854      6.04447      7.10609        -0.137607     -0.413027     -0.466349
32   2      2.72491      7.54671      7.03337        -0.003905     -1.183542      0.240318
33   2      1.70773      5.87551      9.34762         0.162079     -0.326667      0.609656
34   2      4.08904      7.21220      9.54238         0.115826      0.186026      0.360216
35   2      0.82679      6.98879     11.93784         0.613439      0.212584      0.558982
36   2      3.53816      5.52415     12.40704        -0.676223     -0.132405     -0.424424
37   2     15.16637      8.92238     28.81064         0.175603      0.031875      0.782136
38   2      2.36458     10.51194     29.51104         0.114204     -0.586187      0.010352
39   2      1.72902      9.19743      2.33354        -0.026874     -0.705165     -0.574298
40   2      4.34448     10.73323      2.26556        -0.121679     -0.281461     -0.115508
41   2      0.97494     10.07964      5.04402        -0.374214      1.129011     -1.348584
42   2      3.28992      8.78148      4.52685         1.391862      0.392840      0.596127
43   2      0.05879      8.75090      7.25956        -0.054021      0.538094      0.825651
44   2      2.80703     10.20105      7.22617        -0.926007      0.360760     -0.616630
45   2      1.73221      8.89012      9.81833        -0.151573      0.081655     -0.152623
46   2      4.28397     10.11497      9.37733         0.096378      0.455017      1.333757
47   2      0.84751      9.93420     12.38164         0.040387      0.153472     -0.323141
48   2      3.24013      8.50629     12.76584        -0.209996     -0.267475     -0.619306
49   2     15.05512     11.67838     29.44634        -0.045205      0.427683      0.052209
50   2      2.39644     13.26332     29.25884         0.207392     -0.288494     -0.378319
51   2      1.68599     11.84177      2.19501         0.114364      0.391520     -0.979912
52   2      3.99886     13.71103      1.93218         0.479026     -0.345735      0.399804
53   2      1.11009     13.02109      4.44080        -0.206684      0.645770      1.279585
54   2      3.76280     11.77925      4.81670        -1.201039      0.190372     -0.534618
55   2      0.06267     11.59099      7.00820        -0.337708      0.683899      0.457488
56   2      2.81260     12.92545      7.16656        -0.439718      1.083491      0.036857
57   2      1.49592     11.91376      9.39131         1.382147     -1.368100      0.374274
58   2      4.51809     13.19496      9.78309        -1.509243     -1.276594     -0.440057
59   2      0.85682     12.81451     12.12204         0.072847     -0.002685      0.015337
60   2      3.54726     11.59471     12.00234        -1.366506     -0.094441     -0.022479
61   2      5.31431      0.38886     29.18514        -0.631640     -0.214661      0.242573
62   2      7.61080      1.88618     29.47944         0.536052      0.141129      0.258291
63   2      6.71976      0.11059      2.20436        -0.108419      0.045205      0.158062
64   2      9.65802      1.76418      2.26759        -0.244753     -0.286046     -0.048779
65   2      6.15130      1.41730      4.68888        -0.567042      0.490834      0.565712
66   2      8.60320      0.31228      4.68462         0.541046     -0.523063      0.418127
67   2      5.06979     14.71477      7.47129         0.570181     -0.618018     -1.501584
68   2      7.76019      1.53473      7.29175         0.057541      0.029325     -0.630778
69   2      6.69693      0.04223      9.70127         2.458272     -1.034057      0.349654
70   2      9.38703      1.33463      9.65366         0.432632      0.004108     -0.231027
71   2      5.86010      1.34198     12.09744        -0.286878     -0.310250      0.894065
72   2      8.33988      0.05159     12.21524         0.366782     -1.466981      0.013853
73   2      5.11335      3.22207     29.21334         0.223071      0.015883      0.337005
74   2      7.58951      4.72335     29.78622        -1.384259     -0.490106      0.018664
75   2      6.72880      3.08101      2.50351         1.845823     -0.434088     -0.685145
76   2      9.35160      4.53063      2.38303         0.032101      0.070632     -0.584352
77   2      5.89749      4.32412      4.84516        -0.041487      0.269831      0.584427
78   2      8.74388      3.18109      4.68106        -0.436929     -0.451638      0.565579
79   2      5.03757      2.74305      7.26711         0.828544      0.111078     -0.427393
80   2      7.78334      4.50298      7.04266         0.031635     -0.831574     -0.183618
81   2      6.77617      2.75438      9.63023         0.024455      0.839153     -0.738871
82   2      9.24712      4.18207      9.55664         0.482447      0.215533      0.056094
83   2      5.94180      4.10728     11.88834        -0.671349      0.572195      0.477748
84   2      8.41877      2.67397     11.94444         0.578393      0.729803      0.580327
85   2      4.82698      6.21020     29.56074         0.269111      0.011518      0.180600
86   2      7.52557      7.75032     29.72192        -0.425549     -0.916097     -0.188865
87   2      6.86262      6.09245      2.63759        -0.031984     -0.641277     -0.663984
88   2      9.38706      7.46547      2.52926        -0.805674      0.076904      0.681545
89   2      5.69538      7.22666      4.87185         0.342810     -0.702729     -0.634792
90   2      8.70046      5.95576      4.74144         0.141243      0.418058      0.911392
91   2      5.07377      5.59198      7.52913        -0.298280      0.507753     -1.941508
92   2      7.93332      7.24570      7.34278        -1.639656      1.177254     -0.808666
93   2      6.96331      5.78006      9.39456        -0.322574     -0.114664      1.610341
94   2      9.05339      7.41256     10.37264         0.650605     -0.619656     -0.726933
95   2      5.72711      7.08813     11.98104         0.443812      0.014143      0.041475
96   2      8.31954      5.45593     12.19274         0.333354      0.293989     -0.106041
97   2      4.99094      9.11386     29.65624        -0.438446     -0.046105      0.172047
98   2      7.44861     10.52624     29.69867         0.177676      0.420508      0.097682
99   2      6.57553      8.76948      2.39377        -0.035414      1.035847      0.155496
100   2      9.22076     10.38761      2.62246        -0.147365      0.730310      0.607652
101   2      6.08541     10.58745      4.71467         0.615034     -0.295589     -0.262139
102   2      8.17521      8.88396      4.82021         0.673508     -0.509282      0.211564
103   2      5.30082      8.76334      6.88717         0.244868      0.635751      1.334295
104   2      7.83754     10.38217      7.25693        -1.306505      0.166283     -0.061768
105   2      6.53360      8.66605      9.68154         0.757151      0.056406     -0.096446
106   2      9.41088     10.22179      9.55320        -0.922835      0.796475      1.368876
107   2      5.57293      9.91971     12.28074         0.753364     -0.252560     -0.223246
108   2      8.24175      9.08353     12.21894        -0.359739      0.035241      0.492041
109   2      5.06671     12.14108     29.57704        -0.027134     -0.038083      0.017539
110   2      7.59508     13.72583     29.55844         0.318257     -0.432368      0.017646
111   2      6.88736     11.99269      2.26792        -0.051251      0.193626      0.282207
112   2      9.25475     13.72220      2.33903         0.294699     -0.183146      0.312433
113   2      6.14271     13.46689      4.97679         0.461100     -0.505193     -0.115734
114   2      8.76243     11.97195      5.08645        -0.254915      0.347595     -0.679670
115   2      5.32278     11.73113      7.29813         0.277360      0.081941     -0.143093
116   2      7.73836     13.33319      7.48232        -0.011336      0.408455     -1.008407
117   2      6.93310     11.72177      9.69154         0.265555     -1.041115     -0.213149
118   2      9.23403     13.34004      9.75389         0.805198     -0.299491      0.678655
119   2      6.05331     12.77897     11.98804         0.617378      0.493185      1.309217
120   2      8.67048     11.70707     12.56294        -0.139075      0.733776     -0.449055
121   2     10.14101      0.39205     29.41354         0.138624     -0.274476      0.229696
122   2     12.82564      2.07164     29.09724         0.090344     -0.879537      0.333899
123   2     12.06775      0.18757      2.12161        -0.181610     -0.125807      0.105955
124   2     14.57489      1.41353      2.08978        -0.741573      0.290454      0.813318
125   2     11.15341      1.69512      4.78239         0.263974     -0.503854     -0.359067
126   2     13.97255     14.72574      4.76707        -0.765726     -0.617834     -0.019297
127   2     10.39522      0.23272      7.16678        -0.013927     -0.251710      0.054821
128   2     12.96357      1.70232      7.20789        -0.133647     -0.860611     -0.233716
129   2     12.07188     14.69260      9.58819        -1.028905     -0.604918     -0.564872
130   2     14.44915      1.23501      9.51684         0.650917      0.763243     -0.215740
131   2     11.27442      1.16917     12.01094        -1.688326      0.730831      0.205107
132   2     13.58736     14.64138     12.01294         0.726572     -0.930606      0.468723
133   2     10.35767      3.16106     29.66804        -0.539998      0.278403     -0.182406
134   2     12.87145      4.78800      0.05346        -1.022019      0.361238     -0.874402
135   2     12.15987      3.29423      2.12338        -0.087735     -0.987147      1.037028
136   2     14.61154      4.64865      2.55389        -1.041860     -0.522222      1.194764
137   2     11.41104      4.51609      4.74293        -1.328003     -0.584093     -0.183081
138   2     13.75287      2.72836      4.74008         0.003002      0.678854     -1.153750
139   2     10.47576      3.20588      7.11289        -0.954525     -0.152404      0.061574
140   2     12.82806      4.61895      7.33377        -0.289328      0.196508     -0.121645
141   2     11.91654      2.85178      9.53889         0.022782     -0.311265      0.421175
142   2     14.60963      4.22807      9.46481        -0.007204      0.115082      0.785227
143   2     10.98347      4.18631     11.99694        -0.434161     -0.261720      0.741514
144   2     13.45477      2.75157     12.13574         0.703802      0.567426     -0.159696
145   2      9.87425      5.93696     29.69714         1.242313      0.957674      0.162789
146   2     12.83591      7.67983      0.06787         0.081962     -0.068661      0.315567
147   2     11.70069      6.17431      2.43087         1.248009      0.001785     -0.268185
148   2     14.72873      7.57960      2.45268        -0.964260     -0.186075     -0.564642
149   2     11.05414      7.69012      5.02808        -0.927923     -0.868933     -0.145005
150   2     13.45155      6.05674      4.89013         1.696663      0.030723     -0.376207
151   2     10.27592      6.16885      7.65746         1.213102     -0.740029     -0.007975
152   2     12.99861      7.34943      7.40952        -0.774726      0.418451      0.212651
153   2     11.87949      5.59380      9.91974         0.153995      1.157908     -0.642707
154   2     14.53311      7.30343      9.75521        -0.285684      0.115035     -0.361726
155   2     11.16428      7.48046     12.48914        -0.296225     -1.171380     -0.454226
156   2     13.65169      5.63429     12.06224        -0.061468     -0.029612      0.087165
157   2      9.91591      8.96098      0.45316         0.862915      0.488388     -1.737261
158   2     12.32045     10.89481      0.06466         0.549957     -0.286495     -0.584313
159   2     11.97402      9.21792      2.38942        -0.344246     -0.721937      0.349902
160   2     14.41885     10.32428      2.16071         0.481265      0.619958      0.134052
161   2     11.14677     10.44519      5.02860         0.044619      0.465074     -0.018727
162   2     13.51377      8.75509      4.93461         0.814749      1.452601     -0.295569
163   2     10.05181      8.96041      7.35402         1.561917     -0.395028     -1.389008
164   2     12.85403     10.35005      7.55744         0.241373     -0.643883     -1.111270
165   2     11.61481      8.52013      9.58901         0.866489     -0.399814      0.408196
166   2     14.40707     10.37250      9.96784         0.585731     -1.050828     -0.673241
167   2     10.98679     10.08346     11.91844         0.152091      0.970146      0.380708
168   2     13.58947      8.66195     12.07914         0.218152      0.158070      0.121405
169   2      9.89930     12.17330      0.19298        -0.120181     -0.142150     -0.511578
170   2     12.52362     13.69633     28.87464         0.128173      0.043637      0.734911
171   2     11.70341     12.03618      2.47375         0.115351      0.378525      0.277406
172   2     14.47452     13.26624      2.27841        -0.310112     -0.195002     -0.222112
173   2     11.25258     13.59092      4.71776        -0.174343      0.001468      0.370220
174   2     13.63055     11.83593      4.68282         0.220575     -0.241800      0.094025
175   2     10.37267     12.07776      7.39757         0.017053      0.145368     -0.688931
176   2     13.17872     13.38454      7.22781        -0.840338      0.065175     -0.537824
177   2     11.84264     11.67888      9.60160         0.088310      0.876982      1.489724
178   2     14.50925     13.12348      9.60875        -0.879403      0.502171      0.333753
179   2     11.00532     13.21379     12.22084        -0.050014     -0.518676     -0.327981
180   2     13.55947     11.74724     12.11004        -0.462265      0.152239      0.527309
