ITEM: TIMESTEP
0
ITEM: NUMBER OF ATOMS
180
ITEM: BOX BOUNDS pp pp pp
0.0 15.3362549999999995 
0.0 14.7573100000000004
0.0 29.7984842388000004
ITEM: ATOMS id type x y z fx fy fz
1   2      0.22216      0.09601     29.13984        -1.037424     -0.571279      0.111385
2   2      2.17023      1.66444      0.02389         0.898801      1.024337      0.105839
3   2      1.71217      0.40336      2.57307         0.847692     -1.330832     -1.426832
4   2      4.39597      1.75881      2.48122         0.244648      0.845306      0.289650
5   2      0.89019      1.64906      4.67962        -1.363699     -0.233777      0.575710
6   2      3.11922      0.30775      5.07441         1.225226     -0.687627      0.056003
7   2      0.00654     14.71125      7.10846         0.507725     -0.211149      0.280600
8   2      2.35810      1.46152      7.67841        -0.251244      0.412738     -0.049024
9   2      1.82908     14.47999      9.86088        -0.401784      0.632294     -0.816821
10   2      4.35792      1.49326      9.89395         0.287356     -0.681964     -0.395748
11   2      0.83544      1.24187     12.38334        -0.456887     -0.285196      0.447784
12   2      3.51751      0.02793     12.41014        -0.052676     -0.699701     -0.165388
13   2     15.16727      3.08545     28.71994         0.003564     -0.046617      0.812543
14   2      2.35996      4.70351     29.62104         0.210571     -0.564184     -0.374275
15   2      2.03254      3.25755      2.60591         0.131230      0.063320     -0.926090
16   2      4.60651      4.89865      2.07565        -0.739746     -1.010171     -0.004211
17   2      0.82381      4.35386      4.89404         0.312622      1.759832     -0.184886
18   2      3.39735      3.21762      5.07661         0.947940     -0.388116     -0.861652
19   2     15.13314      2.81032      6.80179        -0.169537     -0.555096      1.946986
20   2      2.63141      4.42153      7.27142        -0.813161      0.724616      1.072937
21   2      1.49770      2.61694     10.20604         0.230040     -0.213524     -2.318191
22   2      4.57507      4.32445      9.88116        -0.683945      0.591380      0.387906
23   2      1.05887      4.25596     12.16574        -1.343366      0.674063      0.806354
24   2      3.51101      2.77937     12.09094        -0.319173     -0.028757      0.950905
25   2     15.26976      6.11808     29.45994        -0.102033     -0.877046     -1.445459
26   2      2.42695      7.60640     29.30444        -0.535400     -0.146111      0.031937
27   2      1.87364      6.02029      2.20569         0.094505      0.711521     -0.187524
28   2      4.44997      7.63791      1.83743        -0.358511     -0.826262      1.273832
29   2      0.41426      7.34257      4.81544         1.184122      0.306989      0.207980
30   2      3.31962      6.21488      4.47776         0.426351     -0.293609      0.563134
31   2     15.22430      5.70884      7.39223         1.258198      0.144534     -0.079521
32   2      2.54913      7.30907      7.02215        -0.111608     -0.295705      0.151069
33   2      1.80447      5.81722      9.62988         0.163323     -0.057012     -0.007459
34   2      4.33970      7.23534      9.96284        -0.661534     -0.701211      0.027106
35   2      1.41885      7.41487     12.06784        -0.952103     -0.601241     -0.189267
36   2      3.34726      5.48142     12.70584         1.156831      0.844753     -0.306381
37   2     15.00337      9.15329     28.84884        -0.122717     -0.159299      0.667293
38   2      2.22347     10.49875     29.52164        -0.057997     -0.052078     -0.288410
39   2      1.74155      9.02272      2.06498         0.112361     -0.328222      0.099201
40   2      4.39835     10.43472      2.10961        -0.237953      0.556707      0.866024
41   2      0.76009     10.19864      4.80050        -0.358350      0.350329     -0.258091
42   2      3.24318      8.96611      4.38364         0.730140     -0.062250      0.204571
43   2     15.28721      8.91251      7.44985        -0.024532     -0.095384      0.017478
44   2      2.65948     10.10511      6.91031        -0.587650      0.804870      0.166767
45   2      2.00858      8.88715      9.68537         0.990765     -0.428774     -0.669700
46   2      4.48445     10.09071     10.72524        -0.004684     -0.485593     -0.909111
47   2      0.90387     10.24998     12.89384        -0.099719      0.451490     -0.346266
48   2      3.20899      8.91627     13.28624         1.243887      0.310514     -0.149505
49   2     15.28959     12.06548     28.93894         0.021500      0.045330      0.422929
50   2      2.85089     13.24470     29.53404        -1.002343      0.656480     -0.305186
51   2      2.02093     12.14551      2.13070        -0.146180     -0.004798     -0.140120
52   2      4.38771     13.77023      2.65352        -0.180937     -0.509970     -0.287002
53   2      0.62196     13.14070      4.32163         0.599548     -0.118935      0.693575
54   2      3.32611     11.89755      4.54695         0.081789     -0.127999      0.508373
55   2     15.07244     11.89815      6.95536         0.346392     -0.139369      0.007471
56   2      2.47644     13.17624      7.04542        -0.889988      0.033370      0.117535
57   2      1.49870     11.65381      9.30971         0.605428      0.001496     -0.213579
58   2      4.21832     13.22688     10.02464         0.261252     -0.552338      0.095134
59   2      0.98589     13.20704     12.04964        -0.132104     -0.840644      0.789416
60   2      3.74801     11.71291     12.66484        -0.640915      0.731359      0.444682
61   2      4.78237      0.48569      0.01086         0.456189     -0.379438     -0.088245
62   2      7.25895      1.89039     29.57124         0.088200     -0.191155      0.173483
63   2      6.91679      0.30981      2.46694        -0.852647      0.003311     -1.078395
64   2      9.24615      1.81901      2.38621         1.352860     -0.413432     -0.373742
65   2      5.82129      1.65450      5.07521        -0.223292      0.273831     -0.480922
66   2      8.30515      0.25753      4.71006         0.969699      0.119399      1.202008
67   2      4.86926      0.17804      7.43771         0.198701     -0.261098      0.019953
68   2      7.48744      1.39249      7.34505         0.041318     -0.294814      0.169648
69   2      6.86808     14.29837      9.57983        -0.291626      0.822498     -0.238781
70   2      9.64491      1.31549      9.93954        -0.742928      0.299577     -0.039343
71   2      6.10680      1.15178     12.55874        -0.075237     -0.229207     -0.371994
72   2      8.51946     14.53305     11.94014         0.086186     -0.462452      0.534427
73   2      4.78937      3.22109     29.25334        -0.033222      0.484291      0.370575
74   2      7.22990      4.85913     29.16004         0.233183     -0.493949      0.259138
75   2      7.11375      3.31724      2.85355        -1.071932     -0.215881     -0.818227
76   2      9.49513      4.64861      1.90922        -0.027098      0.684684      0.879465
77   2      5.98731      4.85051      4.71167        -0.379301     -0.213093      0.609482
78   2      8.69301      3.07930      5.08480        -0.140531      0.057656      0.582568
79   2      5.03109      3.03515      7.51822         0.159107     -0.876210     -0.455613
80   2      7.70025      4.12810      7.55451         0.309089      0.542872     -1.049336
81   2      7.05755      2.74576      9.94394        -0.449542     -0.793023      0.403307
82   2      9.34279      4.26590      9.78529         1.238683     -0.182266      0.578963
83   2      5.88472      3.86249     12.65284         0.614532      0.877803     -0.115420
84   2      8.69642      2.46126     12.53314         0.020318      0.607869     -0.181300
85   2      4.81143      6.18395     28.76944         0.066227     -0.048658      0.639403
86   2      7.48705      7.58762     29.42054         0.160049      0.158170      0.106570
87   2      6.99609      6.09051      2.28347         0.541504      0.752377     -0.123322
88   2      9.46475      7.64006      1.96392        -0.167449      0.023539      0.200613
89   2      6.19556      7.52087      5.16332        -0.265981      0.941090     -0.268159
90   2      8.84235      6.30299      4.55466        -1.082647      0.248655      0.277362
91   2      5.27183      5.73093      7.29212        -0.243264      0.937463      0.013285
92   2      7.76890      7.26521      7.40243        -0.190376     -0.516990      0.090780
93   2      6.98850      5.66599      9.75330        -0.227190      0.830938      0.585188
94   2      9.65126      7.09756      9.68056        -0.215323     -0.300040      0.445679
95   2      5.90118      7.11860     12.25584         0.005752     -0.515867      0.716656
96   2      8.27730      5.29934     12.65234         0.188410      0.204980     -0.523877
97   2      4.72062      9.12971     29.49534         0.729881      0.430001     -1.211677
98   2      7.85003     10.75145     29.54594         0.191037     -0.230028     -0.022335
99   2      6.88120      9.09228      1.92810         0.389129      0.017932      0.350270
100   2      9.20243     10.88746      2.24958         0.415913     -0.821688     -0.780462
101   2      5.85843     10.65480      5.19302        -0.500683     -0.785313     -0.918366
102   2      8.58936      9.22424      4.65538        -0.857507     -0.344428      0.259865
103   2      4.84271      8.92165      7.88568         0.503936     -0.008823     -0.099028
104   2      7.30774     10.08809      7.31387         0.791459      0.014964      0.403242
105   2      6.80089      8.54386     10.05364        -0.230409     -0.017981     -0.350892
106   2      9.12480      9.73187      9.51660         0.744967      1.055533      0.444788
107   2      6.00698      9.99738     13.13744         0.221970     -0.117860     -0.562525
108   2      8.51505      8.33607     12.34444         0.268233      0.104810     -0.060373
109   2      5.26147     12.17098      0.08006         0.061876     -0.332431     -0.254789
110   2      7.51146     13.53495     29.29864         0.588212      0.677535      0.244463
111   2      6.86536     12.14370      2.34602        -0.941965      0.338442      0.012973
112   2      9.52193     13.71737      2.34648        -0.287772      0.203840     -0.772503
113   2      5.87405     13.39913      5.02635        -1.370818      0.825752     -1.334390
114   2      8.42953     12.22334      4.63860         0.854313     -0.793027      0.184763
115   2      4.88015     12.11732      7.53529         0.301144     -1.007057      0.224721
116   2      7.45604     13.09368      7.02690         1.190276     -0.077200      1.719201
117   2      6.85704     11.50048      9.77584        -0.377584     -0.276245     -0.084725
118   2      9.33748     12.94428      9.69790        -0.461926     -0.264984     -0.025476
119   2      6.22267     13.03569     12.11594        -0.347911     -0.258725      0.341918
120   2      8.61112     11.30124     12.15124        -0.441834     -0.473050     -0.017092
121   2      9.90955      0.38055     29.38424        -0.003471     -0.211160      0.258190
122   2     12.63889      1.60253     29.01154         0.167165     -0.531487      0.374195
123   2     12.04711      0.46004      1.94991        -0.800095      0.163606      0.725192
124   2     14.76638      1.76539      1.98936        -0.563578      0.421322     -0.135790
125   2     11.07418      1.53778      4.76847        -0.206068     -0.235306     -0.053020
126   2     13.72146     14.73440      4.75035        -0.218936      0.302747     -0.332469
127   2      9.79531     14.61470      7.49864         0.618533     -0.492677     -0.661848
128   2     12.75809      0.77181      7.20963        -0.713061      1.001057      0.416115
129   2     11.82512     14.34952      9.77992         0.701636      0.504981     -0.392000
130   2     14.35663      1.29480      9.78596         0.179514     -0.219748     -0.189467
131   2     11.15120      0.75162     12.46844        -0.051998      0.744730     -0.159935
132   2     13.45195     14.01960     12.17224         0.483862      1.319445      0.066436
133   2      9.78043      3.11559     29.56354         0.157355     -0.484311     -0.684961
134   2     12.59258      4.27249     29.35924         0.457790      1.758529     -1.636658
135   2     12.15736      3.14608      1.79594        -0.227354     -0.133096      2.006387
136   2     14.80635      4.66316      2.40239        -0.599412     -0.573460     -0.638785
137   2     10.88310      4.61347      4.43445         1.275913     -0.383544      0.029926
138   2     13.42718      2.90595      4.53869        -0.016646      0.092790     -0.465162
139   2     10.39159      2.54553      7.47863         0.261851      0.610846     -0.256113
140   2     12.85373      4.26837      7.13991        -0.804414     -0.705488     -0.254666
141   2     11.99506      2.69532      9.98724        -0.295106      0.317568     -0.626719
142   2     14.42036      4.24830      9.76567         0.422410     -0.940830      0.084814
143   2     11.05978      4.41273     12.28004        -0.295867      0.120454     -0.224209
144   2     13.37030      2.84725     12.32024         0.660749     -0.032840      0.218130
145   2     10.09248      5.82709     29.15234        -0.167584      0.572400      0.188798
146   2     12.51848      7.21653     28.74024         0.530535     -0.083109      0.722198
147   2     12.02134      6.11462      1.99052         0.239748     -0.027802      0.011440
148   2     14.75289      7.43409      1.78806        -0.771480      1.201706      1.431920
149   2     11.22107      7.65566      4.39250         0.241445     -0.507802      0.169963
150   2     13.64938      5.74216      4.65721        -1.356213      0.212199      0.276639
151   2     10.31599      5.57087      7.19926        -0.477698     -0.015465     -0.579663
152   2     12.90790      7.06852      7.33565        -0.446338      1.231806     -0.666917
153   2     11.95741      5.59196      9.49370        -0.127886     -0.134198      0.949533
154   2     14.46959      6.91891     10.08754         0.337883      0.814941     -0.153570
155   2     11.24160      7.25954     12.21424         0.166089     -0.569616     -0.249689
156   2     14.00980      5.78928     12.65174        -0.324342     -0.336982     -0.338219
157   2     10.40297      8.92407     29.48314        -1.077383      0.313039     -0.806717
158   2     12.67040     10.92099     29.08524        -0.002407     -0.740321     -0.061132
159   2     12.30777      9.00014      1.47641         0.867375      0.074864      0.879099
160   2     14.95344     10.73967      1.78913        -0.733571     -0.007317      0.111004
161   2     10.98156     10.35841      4.18710         1.145985      0.780019      0.475178
162   2     13.63337      8.97655      4.11196        -0.219152      0.060438     -0.238737
163   2     10.16860      8.52580      7.24092         0.994988      0.336929     -0.814698
164   2     12.72577     10.26539      7.21676         0.032097     -1.644286     -0.845265
165   2     12.35669      8.77956      9.54661        -0.314297     -0.758235      0.401217
166   2     14.96955      9.85904     10.28444        -0.873591      0.181565     -0.331656
167   2     11.18794      9.92949     12.42144        -0.056615      0.351423     -0.458167
168   2     13.93641      8.57700     12.53874        -0.459079     -0.140523     -0.012517
169   2     10.21028     12.42066     28.82754        -0.127888     -0.205278      0.630546
170   2     12.82212     13.57924     29.75244         0.157286      0.667123     -2.161035
171   2     11.83902     11.97859      1.79153        -0.346414     -0.708815      1.155341
172   2     14.32955     13.67176      2.14117         0.861607     -0.364093      0.331067
173   2     11.24170     13.48068      4.40393         0.013408     -0.309456      0.602283
174   2     13.47762     11.77090      4.44166        -0.021419     -0.213876      0.017203
175   2      9.96761     11.52062      7.44744        -0.309651     -0.408970     -0.812902
176   2     12.39062     12.83011      7.40287         0.137328      1.490180     -0.843662
177   2     12.01560     11.43695      9.69120        -0.034752     -0.075991      0.746096
178   2     14.54872     13.16979      9.69593        -0.285211     -0.054178     -0.411363
179   2     10.92689     12.73527     11.91244         0.419603     -0.199317      1.023678
180   2     13.71673     11.43585     12.29694         0.028557     -1.006318     -0.042736
