ITEM: TIMESTEP
0
ITEM: NUMBER OF ATOMS
180
ITEM: BOX BOUNDS pp pp pp
0.0 15.3362549999999995 
0.0 14.7573100000000004
0.0 29.7984842388000004
ITEM: ATOMS id type x y z fx fy fz
1   2      0.16637      0.31627      0.05505        -0.395487     -0.058487     -1.243901
2   2      2.54745      1.64346     28.72744         0.230664     -0.593128      0.676278
3   2      1.36597     14.74578      2.38421         0.442837      0.158627      1.143892
4   2      4.40220      0.92366      1.67426        -0.140527      1.551199      0.541750
5   2      0.63594      2.02309      4.44853         0.267451     -0.445199     -0.131988
6   2      3.38986      0.13982      4.36840        -1.431651     -0.642636     -0.254221
7   2     15.10576      0.11334      6.97026         1.596907      0.378097      1.212882
8   2      2.80178      1.82121      6.55790        -1.306733     -1.552965      0.588096
9   2      1.85752      0.01178      9.52716        -0.292004      0.835106      0.862030
10   2      4.18178      1.62168      9.71225         1.713854     -1.408592     -1.070542
11   2      0.63543      1.28338     11.88524         0.697678      0.227299      0.707383
12   2      3.32267     14.68014     12.43514        -0.237243      1.206013     -0.480174
13   2      0.35481      3.15685      0.04606         0.110110     -0.265227     -1.084322
14   2      3.22102      4.24705     29.02934        -0.582348      0.248439      0.084825
15   2      2.16010      2.61741      2.02626         0.050098     -0.373555     -0.034370
16   2      4.56526      4.14081      1.76256        -0.378253     -0.233737      0.608394
17   2      0.73000      4.89554      4.83566         0.043512      0.177543      0.015869
18   2      3.32454      3.33197      4.44317         0.401768      0.127072     -0.802813
19   2     15.21530      2.86164      6.92325         0.299768      0.938016      0.503717
20   2      2.55007      4.43553      7.02009        -0.028743      0.847259      0.342336
21   2      1.85623      2.81460      9.29112        -0.949263      0.464343     -0.186646
22   2      4.58360      4.64228      9.81725        -0.592500      0.245868     -0.508373
23   2      1.14844      4.05964     12.40764        -1.124617      0.909994     -0.210430
24   2      3.42905      2.97516     11.76294         0.577002      0.102783      1.500109
25   2      0.18661      5.65727     28.71974         0.155434      0.145178      0.378105
26   2      2.66870      6.91032     29.38084        -0.191778      0.183833      0.302555
27   2      1.99932      5.31019      2.23555        -0.292918      0.901889      0.009006
28   2      4.29699      7.20484      2.11901        -0.176651      0.115134      0.102843
29   2      0.75886      7.85520      5.47856        -0.076537     -0.163970     -0.380462
30   2      3.34370      6.09902      4.78193        -0.149065      0.584235      0.067285
31   2      0.00227      6.09812      7.54998        -0.502358     -0.086317     -0.237600
32   2      2.74064      7.21674      7.49923         0.668629      0.063971     -0.623031
33   2      1.86603      5.59773      9.65197         0.118903      0.040389      0.628213
34   2      4.78384      7.58814      9.84440         0.188637      0.345743     -0.251135
35   2      0.78302      7.01425     12.66744         0.147690      0.040171     -0.550137
36   2      3.59505      6.15465     12.06804        -0.675633     -0.365443      0.071050
37   2      0.19043      8.34626     29.54864        -0.155007      0.269474      0.130832
38   2      2.83861      9.93049      0.01246        -1.800508      0.266962     -0.313965
39   2      1.73493      8.38313      2.35030         0.154507      0.217422     -0.055967
40   2      4.48692     10.32529      2.05949         0.483539     -0.172651      0.295287
41   2      0.78002     10.60809      5.15497        -0.009400     -0.832330     -0.825715
42   2      3.46769      9.41591      4.34395        -0.350748     -1.656380      0.461192
43   2     15.25478      9.08030      8.08828         0.210094     -0.217489     -1.705995
44   2      2.69984     10.05709      7.37816        -0.394302     -0.173926      0.143194
45   2      2.15539      8.43944      9.87266        -0.192196      0.692374      0.632770
46   2      4.55245     10.61332     10.37734        -0.452380     -1.397486      0.166907
47   2      1.07635     10.43351     12.37564        -0.345941     -0.416634      0.503928
48   2      3.24692      8.91112     12.81504         0.131627      0.116336     -0.352952
49   2      0.06419     11.10774      0.54974         1.083815     -0.198044     -1.210876
50   2      2.29921     13.23564      0.16020        -0.251518     -0.228656     -0.969260
51   2      1.49870     12.03235      2.72811         0.245475     -0.872071      0.188447
52   2      4.08467     13.11533      2.10328         0.335805     -0.833406      0.899244
53   2      0.57724     13.40417      4.96002         0.786048     -0.124167     -0.903722
54   2      3.35168     11.91718      5.08935        -0.234035      1.343528     -0.237073
55   2     15.22083     11.91114      7.28244        -0.324114      0.029411      1.383470
56   2      2.41178     13.30399      7.45270        -0.168812     -0.420968     -1.654823
57   2      1.99004     11.93802      9.77285        -1.007614     -1.191705      0.377471
58   2      4.32215     13.25708      9.81553         0.371139      1.110704     -0.686162
59   2      0.64673     13.36380     12.43834         1.027544      0.419410      0.237776
60   2      3.11362     12.04323     12.59744         1.340989     -0.535553      0.166457
61   2      5.07989     14.56849     29.11034        -0.983538      0.040031     -0.555881
62   2      7.71171      1.10574     29.42244         0.226206      0.397932     -0.611844
63   2      6.95942     14.53234      2.19599        -0.408625      1.707089      0.196275
64   2      9.13618      1.37113      2.03673         2.089731     -0.475733     -0.104216
65   2      5.63322      1.36255      4.80460         1.259384      1.308574     -0.103612
66   2      8.37681      0.14109      4.66401        -0.801630     -1.152233      0.181854
67   2      4.74525     14.68950      7.24921         0.684353     -0.135661      0.171245
68   2      7.31574      1.19136      7.17471         0.547766     -0.024375      0.224588
69   2      6.93271     14.54306      9.65105        -0.949453      0.953149     -0.615021
70   2      9.48100      1.83389      9.70637        -1.930235     -0.023710      0.793093
71   2      6.05447      1.45421     12.20844        -2.042505     -0.744273      0.125601
72   2      8.40018      0.09990     11.93224         0.849560      0.096323      0.326848
73   2      5.44314      2.59485     29.15374        -1.400360     -0.419016     -0.124507
74   2      7.60445      4.06220     29.03714         1.026260      0.769294      0.029343
75   2      6.93059      2.70162      1.84393        -1.258525      0.935734      0.622507
76   2      9.42884      4.21110      2.17192        -0.257851      0.787609     -0.607442
77   2      5.95516      4.43006      4.31651        -0.055310     -0.512459      0.592883
78   2      8.53725      2.84161      4.48740        -1.230025     -0.008959     -0.230740
79   2      5.14350      2.92689      7.25309        -0.191528      0.239294     -0.463745
80   2      7.87279      4.37943      6.58355        -0.597396      0.339449      0.317694
81   2      6.93005      3.49292      9.10326         1.227222     -0.173416      0.555739
82   2      9.38771      4.72922     10.23864         0.371875      0.168094     -0.640886
83   2      5.48584      4.43068     13.31714         0.197573      0.001498     -0.975671
84   2      7.87915      3.15819     11.80364         0.740982      0.849111      0.417089
85   2      5.56870      5.78296     29.52494        -0.709022      0.203150     -0.692784
86   2      8.00670      7.03712     29.19884        -0.374238      0.263395     -0.711333
87   2      6.82757      5.84577      2.18089         0.714609      0.269405     -0.172907
88   2      9.47278      7.11416      1.60509         0.870077      0.002242      1.001980
89   2      5.76669      7.43321      4.52992         0.591402     -0.134666     -0.216856
90   2      8.68868      5.96129      4.31661        -0.581196     -0.052499     -0.579045
91   2      5.45209      5.71214      7.10902        -0.332959      0.584553     -0.036812
92   2      7.96953      7.32276      6.57295        -0.673919      0.651109      0.088888
93   2      6.83596      5.94039     10.73754         0.243833      0.211118      0.351419
94   2      9.39901      7.50427      9.81295        -0.172881      0.049238      0.532242
95   2      5.62779      7.62913     13.17284         1.021632      0.087952     -0.208874
96   2      8.68263      6.31191     12.80384        -0.652316      0.575292     -0.122886
97   2      5.00386      8.50314     29.35044         1.020665     -0.021435     -0.259759
98   2      7.50389     10.00383     28.65844        -0.194370      0.060135      0.656454
99   2      6.89669      8.72343      1.63912        -0.592386     -0.363972      0.364847
100   2      9.11754     10.11477      1.18934         0.570165      0.378962      0.535559
101   2      6.17425     10.67514      4.61041         0.440578      0.055392     -0.756052
102   2      8.62470      8.90591      3.93738        -0.127187     -0.342042     -0.017469
103   2      5.40181      9.11915      6.62091        -0.324519     -0.703642      0.968587
104   2      7.78335      9.86009      7.84381        -0.856349      0.204171     -0.406499
105   2      7.30339      8.93805     11.02574        -0.537895     -0.046107      0.050998
106   2      9.52433     10.30898      9.78260         0.679769      0.687983      0.876376
107   2      5.71172     10.62379     13.51274        -0.043927     -0.202784     -0.911732
108   2      8.25771      9.41459     13.72704        -0.088637      0.036711     -0.860869
109   2      5.04710     11.65381     29.39114        -0.264516     -0.248828     -0.161450
110   2      7.31225     13.16385     29.38554         1.037021     -0.720926     -0.847513
111   2      6.71778     12.01675      2.00657         0.229806     -2.513503      0.495461
112   2      9.39315     13.23100      1.43538         0.226256     -0.112165      0.212999
113   2      5.82290     13.39964      4.49561         0.178030     -0.381771      0.631499
114   2      8.82641     11.68603      3.91202        -0.222126      0.041591     -0.105524
115   2      4.89663     11.74140      7.36611         0.792532      0.295077      0.402327
116   2      7.59274     12.81340      7.32177        -1.281690      0.465790     -0.273313
117   2      6.93855     11.80311     10.04394         0.686183     -0.736318     -0.176294
118   2      9.36919     13.30550      9.60068         0.796129     -0.255734      0.189090
119   2      5.73216     13.31608     12.13014         0.614837     -0.240852      0.871259
120   2      8.53005     12.17229     12.66084        -0.321433     -0.664670     -0.098190
121   2     10.16195      0.00478     29.02984         0.312814     -0.267945      0.133359
122   2     12.49633      1.42858     29.38534         0.239512     -0.018594      0.471864
123   2     11.91291      0.11743      2.21430         0.165227     -0.652893     -0.814923
124   2     14.38250      1.66001      2.16334        -0.431684     -0.229682      0.156395
125   2     10.82843      1.28316      4.31690        -0.566687     -0.106920      0.942047
126   2     13.46041     14.67288      4.71388        -0.236629     -0.289392     -0.763946
127   2      9.96875      0.10293      7.00511         0.230014      0.484978      0.752243
128   2     12.77953      1.48716      7.23333        -1.189240      0.773113      0.369672
129   2     11.61773      0.37678      9.69564         1.156046     -1.429991     -0.233903
130   2     14.56241      1.51891      9.62114        -0.584079      0.253705     -0.862042
131   2     10.58922      2.22012     12.44274         0.080023     -1.468482     -0.528716
132   2     13.01955      0.38456     12.18054         0.208706     -0.297385     -0.193220
133   2     10.07255      3.05652     29.20004         0.747344     -0.246143      0.275741
134   2     12.90457      4.19163     29.32054        -0.130742      0.132527      0.100307
135   2     11.89298      3.10220      2.29164        -0.120116      0.073690     -1.642712
136   2     14.50543      4.43403      2.05212         0.250926      0.688653      0.702314
137   2     10.82309      4.21072      4.80426         0.231275      0.739319      0.499530
138   2     13.05277      2.64125      4.59857         2.189611      0.464854      1.242787
139   2     10.08705      3.01348      7.45596         0.548391     -0.001774     -0.871251
140   2     12.64463      4.33230      7.11389         0.256455      0.281500      0.301511
141   2     11.99124      3.14908      9.82913         0.153825      0.535292     -0.265235
142   2     14.65453      4.34232      9.66754        -0.272899      0.263067     -0.095712
143   2     10.90867      4.76627     12.60744         0.695905      0.525744      0.055731
144   2     13.70525      3.02900     12.08774        -0.030478      0.624782      0.206912
145   2     10.54311      5.91827     28.75674        -0.108066     -0.475093      0.542046
146   2     13.08891      6.95831     28.65314         0.036648      0.524604      0.460343
147   2     12.23437      6.00300      1.98415        -0.837761      0.465354     -0.083797
148   2     14.64768      7.26827      2.65927        -0.253201      0.087322      0.318551
149   2     10.99535      7.18421      5.00099         0.048359      0.018364     -0.099696
150   2     13.40705      5.46665      4.58133        -0.211361      0.494730      0.144815
151   2     10.05000      5.87076      7.68177         0.367649     -0.387066     -0.220645
152   2     12.53147      7.23110      7.41148         1.396424     -0.114511     -0.280405
153   2     12.12906      6.11102      9.84110        -0.313961     -0.287527      0.247797
154   2     14.63621      7.43513     10.15714         0.092808     -0.438851      0.259955
155   2     11.15220      7.48987     12.36864         0.035776      1.043681     -0.141861
156   2     13.45014      5.97198     12.34674         0.780208     -0.184539      0.044189
157   2     10.69825      8.70247     29.07604         0.069858     -0.208425      0.081656
158   2     13.09203     10.14085     29.29284        -0.339884     -0.331712      0.155238
159   2     11.63193      8.95408      2.65810        -0.042086     -0.573754     -0.469626
160   2     14.16705     10.37150      2.74805        -0.458252     -0.656798      1.144903
161   2     11.02434     10.15223      5.09255        -1.849461      0.197687     -0.025778
162   2     13.28724      8.75339      5.13705         1.600739     -0.330083     -0.100430
163   2     10.37408      8.81564      7.52481        -0.713136      0.026481     -0.301509
164   2     12.46794     10.53550      7.82157         0.781749      0.145356     -0.575468
165   2     12.33233      9.46137     10.35944        -1.324803     -1.195289     -0.151929
166   2     14.81682     10.50117     10.23134         0.347512      1.300313     -0.669886
167   2     10.89407     10.36475     12.66474        -0.319306     -0.056691     -0.186197
168   2     13.95342      9.20572     12.50934        -0.163546     -1.579305      0.835903
169   2     10.38958     11.52041     29.00784        -0.031541      0.041098     -0.014188
170   2     12.50257     13.10566      0.03116        -1.010525      0.243483     -1.387957
171   2     11.52883     11.77583      2.33333         0.272871     -0.254707      0.547779
172   2     14.19293     13.14573      1.94262         1.029626      0.507796      1.464105
173   2     10.84283     13.30520      4.85603         0.256850     -0.109348     -0.702768
174   2     13.12797     11.71412      5.17686         1.424404      0.343658     -0.314153
175   2     10.07164     12.00990      7.14419         0.868032     -0.909170      0.387748
176   2     12.83561     13.52961      7.29467        -1.246889     -1.021270      0.856330
177   2     12.29881     12.15810     10.04994         0.037940      0.674416     -0.722101
178   2     14.74635     13.57542      9.99544        -0.507082     -0.599895     -0.505892
179   2     11.05747     13.20845     12.12954        -0.477211      0.365080      0.609987
180   2     13.85808     11.87882     12.65044        -1.289428      0.254798     -0.187762
