ITEM: TIMESTEP
0
ITEM: NUMBER OF ATOMS
180
ITEM: BOX BOUNDS pp pp pp
0.0 15.3362549999999995 
0.0 14.7573100000000004
0.0 29.7984842388000004
ITEM: ATOMS id type x y z fx fy fz
1   2      1.23629      0.84403     26.43584        -0.844610      0.760298     -0.443763
2   2      2.45584      1.79963     29.01104         0.078829      0.001481     -0.399620
3   2      1.65717      0.32259      1.39720         0.279117     -1.184829      0.230717
4   2      4.29652      1.79122      1.47441        -0.337901     -0.848502      0.738194
5   2     15.07301      1.89800      5.22694         0.448674      0.609398      0.027675
6   2      3.98240     14.70886      5.80476        -0.702056     -0.731062     -1.256482
7   2     14.67356      0.51766      7.56069         0.676630     -0.562242      0.382573
8   2      2.30979      1.23580      7.74305        -0.210501      0.265009      0.034740
9   2      1.44701     14.55094     10.04674         0.067632      0.024813      0.115651
10   2      4.55950      1.21900     11.42154         0.846852     -0.674500     -1.385364
11   2      0.79844      1.27797     12.64704         0.320809     -0.472511     -0.539331
12   2      3.16914     14.26737     13.16254         0.191871      0.437459     -0.193525
13   2      1.44965      3.50933     26.59374        -0.029075     -0.342526      0.444267
14   2      2.28422      4.57182     28.95204         0.207957      0.145999     -0.079177
15   2      1.17142      2.82801      1.98661         0.450705      0.374172     -0.229798
16   2      3.58048      4.62263      2.70111         1.837464     -0.607708      0.491903
17   2      0.80793      4.36421      4.14338        -0.309397      0.385881      0.839124
18   2      3.33875      2.33071      4.18708        -0.010040     -0.109417      0.338073
19   2      0.02855      3.71812      8.09416        -0.359838     -0.265132     -1.764869
20   2      2.71040      4.33556      8.38471         1.405240      0.903618     -1.835774
21   2      1.73209      2.82499     10.18284         0.207469     -1.769041      1.370602
22   2      5.45792      3.13281      8.89701        -1.427782      1.663847      1.051227
23   2      0.79188      4.34907     12.93294         1.101569     -1.201265      0.187740
24   2      3.06102      2.62826     12.91904        -0.213213      0.879306      0.649104
25   2     15.22778      6.33103     29.04784        -1.019462      0.035259     -0.503212
26   2      2.18506      7.49791     29.46674         1.356305      1.110694      0.062947
27   2      1.55726      5.62011      1.56317        -1.560538      0.945053     -0.049757
28   2      3.93897      7.40135      2.22195        -0.163894      0.503838      0.205863
29   2      1.10358      7.23497      4.41529        -0.493723     -0.284798      0.017828
30   2      3.15350      5.29200      5.38250        -0.155985     -0.383057      0.217165
31   2     14.59734      6.05568      6.61972         0.201776     -0.357564     -0.338510
32   2      3.57658      7.65200      6.68756        -1.747259     -2.084527     -0.344466
33   2      2.13619      5.74292     10.67564        -0.250626     -0.047418     -0.320639
34   2      4.17583      6.88683      9.13634         0.657686     -0.450294      0.171117
35   2      1.67242      7.05213     13.13144        -0.489422      0.660637      0.346805
36   2      3.70967      5.27213     12.87204         0.624390      0.278833      0.040975
37   2     14.94860      9.19113     29.20714         0.040738      0.140660      0.246954
38   2      1.72089     10.94153     28.64394         0.235610      0.282077      0.114101
39   2      1.30819      9.36298      2.23328         0.184018      0.238948     -0.038021
40   2      3.88725     10.49865      1.51724        -0.543024     -0.675056      0.210173
41   2      0.20984     10.50640      5.26991         0.560319     -0.617185     -0.216124
42   2      3.14065      9.07308      4.51725         0.086470      0.797925     -1.210270
43   2     15.23030      9.66620      7.90943        -0.430779     -0.735984     -0.648799
44   2      2.64380     10.45385      6.97605        -0.403010     -0.325522     -0.163677
45   2      1.59314      8.47423      9.81252         1.371885     -0.744530     -0.825883
46   2      4.12048     10.10219      9.50600         0.032786     -0.360378      0.070892
47   2      0.14178     10.07491     13.69524         3.603086      3.473647      0.871456
48   2      3.65601      8.12375     11.52614         0.735964      0.344531      0.908956
49   2     15.24842     12.74655     26.93514         0.523942      0.259871      0.969270
50   2      2.33548     13.88077     27.90484         0.123841     -1.743799      0.867598
51   2      1.78233     11.99661      3.43971        -0.664502     -2.319958      0.526708
52   2      3.72066     13.38081      2.69266         1.518563      1.316812     -0.049277
53   2      1.06501     13.87322      5.45818         0.660228      0.567653      0.972958
54   2      4.38311     11.96329      5.03361        -1.359055     -0.741842     -0.734790
55   2     15.27096     12.36066      7.55674         0.364506      0.350889     -0.460315
56   2      2.67654     13.10043      7.66275         0.089978      0.388869      0.813050
57   2      1.52694     11.18194      9.69932         1.110821      1.783655     -0.113829
58   2      4.00991     13.01062     10.58784        -0.531523      0.483510     -0.456809
59   2      1.16934     12.69349     12.33934        -0.440796     -0.447914     -0.298100
60   2      3.45352     10.96206     12.51364         0.109714      0.122436     -0.226705
61   2      4.09479     13.81583      0.07410         0.071124      0.530979     -0.329363
62   2      6.90508      1.37392     28.74854        -0.127750      0.201459      0.587128
63   2      6.56729     14.57756      1.30142         0.535949      2.356437      0.423211
64   2      9.69037      1.38584      0.44900         0.345206      0.244404      0.558305
65   2      6.12412      1.40119      3.65273        -0.001083     -1.199125     -0.235189
66   2      9.06866     14.01165      3.30811        -0.036445      0.498144      0.102865
67   2      4.96094      0.30036      8.41470        -0.471954     -1.084148      1.422426
68   2      7.57901      0.12910      5.96529         0.592287      0.464498      0.511343
69   2      7.20326      0.54988     11.68644        -0.273751      0.008810     -1.580791
70   2      9.77906      0.75230     10.58804         0.194193     -0.050986     -0.378169
71   2      6.38094      0.66781     14.11994        -0.057965      0.137442      0.548660
72   2      9.36883      0.30012     13.23864         0.206324      0.839885      1.144947
73   2      4.89789      3.41788     29.33534         0.308185      0.784877     -0.660719
74   2      7.29040      4.59084     28.57064         0.122818      0.160468      0.272138
75   2      7.18198      3.25163      1.63173         0.145207     -0.469673     -0.381111
76   2      9.68691      4.44179      0.51521        -0.137582     -2.404344     -0.336506
77   2      6.07837      3.91278      4.27146        -0.450032      1.676693      0.539379
78   2      8.80343      3.28212      4.06570        -0.336444      0.032269     -0.532586
79   2      5.38772      2.04308      6.47815         0.467767      1.405821     -1.490051
80   2      7.96245      3.12083      6.83759        -0.358922      0.414175     -0.652131
81   2      7.44466      1.54791      9.00651         1.192690     -1.099787      0.578315
82   2      9.50192      4.48120      9.72400        -0.280795     -1.280117      2.605763
83   2      5.79869      3.77445     11.91454         0.114606     -0.230189     -0.222290
84   2      8.43588      3.07040     13.81894        -0.501802     -1.473139      0.013571
85   2      5.38190      6.33490      0.12576        -0.938390     -1.061574     -0.817091
86   2      7.45004      7.40873     28.38534         0.442229      0.123156      0.110692
87   2      7.07165      5.90062      2.36416         0.132675     -0.156243      0.875353
88   2      9.45320      6.93127      0.92933        -0.447638      1.453134     -0.202145
89   2      6.10595      7.70702      4.58635        -0.213730     -0.466262      0.128059
90   2      8.09593      5.95272      5.30837         0.388459     -0.571766     -0.212779
91   2      5.48238      5.28535      6.93430        -0.051729     -0.059163      0.079261
92   2      7.35131      7.55340      7.40761        -0.695146      0.629066     -0.635673
93   2      6.96993      5.54776      9.46463        -0.544705      0.198689      0.312502
94   2      9.91768      6.99671     10.25954         0.073954      2.256984      2.648342
95   2      6.28895      7.32786     12.31084        -0.302890     -0.856741     -0.396267
96   2      8.12032      5.26370     12.33454        -0.024976      0.614326     -0.591804
97   2      4.61755      8.96489     28.61424        -0.028791      0.087165      0.873797
98   2      8.30501     10.31552     29.50834        -0.425843     -0.077390     -0.087399
99   2      6.70674      8.37591      1.14987        -0.848517      1.391318     -0.573776
100   2     10.32626     10.58725      1.53471         0.201629      0.045680      0.796183
101   2      6.10842     10.18233      3.58938        -0.034572      0.510283     -0.508881
102   2      8.58137      8.46979      2.92690         0.742511      0.928395      1.543137
103   2      5.26825      9.44185      6.89461         2.029392      0.653516     -0.159223
104   2      7.72018     10.72840      6.54702        -0.614153     -0.657614      0.393877
105   2      6.96321      8.76272      9.72595        -0.288048      0.185813      0.740300
106   2      9.37001     10.11185     10.39594        -0.467246      0.931984      1.359160
107   2      6.08150      9.92155     12.62444        -0.202410      0.852353     -0.501535
108   2      8.88420      8.26945     12.55384        -1.438350      0.538401     -0.314658
109   2      4.95460     11.79697     28.23114        -0.275499     -0.316073      0.621814
110   2      7.57351     12.99552     29.04754        -0.805213     -0.979257      0.246868
111   2      6.04330     12.10766      1.37800         0.011638     -2.123053      0.227362
112   2      9.96604     13.38423      0.80200        -0.106602      1.050893      1.943214
113   2      6.39147     13.40719      4.09948         0.435139     -0.272120     -0.896257
114   2      8.64760     11.31353      4.14951         0.467248     -0.190995     -0.879101
115   2      5.32891     12.02037      7.43097         0.653083      1.221443      1.728397
116   2      7.34663     13.52649      8.87270         0.701580      0.683659     -0.888685
117   2      6.34669     11.55857     10.22134         0.243533     -0.908235      0.946894
118   2      8.87961     12.93522     11.17124        -0.237055     -0.550528     -0.646926
119   2      5.67269     12.96915     12.95754        -0.006527     -0.310319     -0.288934
120   2      9.47619     12.43002     13.71494         0.356457     -0.627591      0.208733
121   2      9.03823     14.58258     27.67964         0.931198      0.860252     -0.182100
122   2     14.93199      3.71567     29.60724         0.276537     -0.544895     -0.153972
123   2     11.69434      0.67721      2.49431        -1.295050      1.557155     -0.462983
124   2     14.30468      1.34618      2.57867        -0.289923      1.088426     -0.475041
125   2     10.25024      1.22899      5.23606         0.161432      0.193704     -0.207251
126   2     12.94424      0.16093      5.00360        -0.414514      0.365173      0.094339
127   2     10.14262     14.54422      7.59083        -0.246863      1.307449      0.383307
128   2     12.81326      2.45797      7.31371        -0.559077      0.663043     -0.336791
129   2     12.33193      0.20955      9.53694        -0.750866     -0.407974      0.108318
130   2     14.33085      1.74098     10.19114         0.794586     -0.722187      0.309322
131   2     11.23808      2.27614     14.00994        -0.090580     -0.660703     -0.389915
132   2     13.57729      1.09186     13.14654        -0.804277      0.132170     -0.293005
133   2      9.15049      2.66293     27.87584         0.259746      0.393913      0.009328
134   2     12.74702      4.48857     27.96834         0.020378      0.376777     -0.078312
135   2     12.38680      3.25833      0.69963        -0.931739     -0.999248      0.240255
136   2     13.95000      4.79031      2.29143         0.486037     -0.510503     -0.514376
137   2     10.45492      4.22061      6.02006         0.617116      0.055415      0.224853
138   2     12.74027      3.66070      4.45806         0.059072     -0.393799      0.528687
139   2     10.05211      2.39514      8.44161         1.414782     -1.094978     -1.159016
140   2     12.51667      5.15955      8.35857         0.458279     -3.624443     -0.473277
141   2     11.71186      2.80159     10.89514        -0.158434      0.074881     -0.439099
142   2     14.81742      4.29058     10.58204        -1.101292      1.292756      0.363370
143   2     10.45442      4.79978     13.78774         0.635658      1.235318     -0.513216
144   2     13.19352      4.00392     12.85894         0.126583     -0.283472      0.759820
145   2     10.11806      5.98405     27.64744        -0.050326     -0.894962      0.418774
146   2     12.97434      7.34007     27.74424        -0.339756      0.014303      0.371445
147   2     11.92902      6.07148      0.25384         0.598960      0.353457      0.587023
148   2     14.60641      7.52008      1.78601         0.140186      0.311836     -0.474479
149   2     11.01206      7.22050      5.88416        -0.446361     -0.183702     -1.121956
150   2     13.34856      6.69495      3.99681         0.766569     -0.937661      1.350310
151   2      9.58603      6.22453      7.91732         0.029469      0.061605     -3.486263
152   2     12.28471      7.58374      8.37936         0.481729      2.803407      0.564473
153   2     12.29911      5.80797     11.03914         0.066664     -0.032094      0.060050
154   2     14.94528      6.99859     10.79614        -0.765755     -0.158000     -0.236028
155   2     11.25590      7.54651     13.18024         0.943444     -0.964454      0.604836
156   2     14.61849      6.06095     14.15464        -0.505509     -0.343288      0.884214
157   2     10.03208      8.55732     28.24074        -0.680783      0.006521      0.157988
158   2     12.23910      9.88829     28.38194         0.957635      1.164416      0.355200
159   2     11.40027      7.80662      2.77935        -1.177556      0.408728     -0.918983
160   2     14.87662     11.71532      1.58931         0.032418     -1.489558     -0.938165
161   2     11.66142     10.10239      4.18544        -0.282412      0.580189      0.044669
162   2     13.39920      8.46874      5.92150         1.481368      0.275135     -0.360601
163   2     10.15058      9.21987      8.13785        -1.183766     -0.657130     -1.226744
164   2     12.32548     10.37683      7.24299         0.197468      1.734770      0.421959
165   2     12.40129      8.71271     10.99344        -0.739440      0.183838     -1.060590
166   2     14.80977      9.83816     10.60024        -1.422395      0.560580      1.105175
167   2     11.06894     10.42002     12.74924         0.069697      0.183567     -0.241830
168   2     14.04785      8.32283     13.09764        -2.954235     -2.435083     -0.806030
169   2     10.42592     12.16072     28.48824         0.613643     -1.403204     -1.643433
170   2     13.36799     12.44080     29.27104        -0.325731     -0.610000     -0.421934
171   2     12.20407     12.92535      2.61186         0.139635     -1.783352     -0.131347
172   2     15.12207     13.68556      3.20468        -0.927574      1.074294     -0.210505
173   2     10.68053     12.86293      5.39130         0.493361      0.212794     -1.491180
174   2     13.47309     12.22807      5.07584        -0.013582     -0.705100     -0.447280
175   2      9.73447     12.02037      7.66969        -0.077000     -1.760818      1.667831
176   2     12.69476     13.20080      7.50335        -0.544435      0.061895      0.223988
177   2     11.65810     11.93872      9.88139        -0.050768     -0.063180      0.344247
178   2     14.44351     12.90300     10.10464        -0.366019      0.135666      0.368314
179   2     11.74559     13.87906     12.34074         0.200334     -0.442754     -0.259442
180   2     13.76556     11.81409     12.60834        -0.716730      0.298404     -0.498426
