ITEM: TIMESTEP
0
ITEM: NUMBER OF ATOMS
180
ITEM: BOX BOUNDS pp pp pp
0.0 15.3362549999999995 
0.0 14.7573100000000004
0.0 29.7984842388000004
ITEM: ATOMS id type x y z fx fy fz
1   2      0.04504      0.07950      0.01827        -0.205857     -0.327108     -0.235287
2   2      2.55783      1.12899     29.42534        -0.575626      1.011908      0.412194
3   2      1.69137      0.09448      2.54532        -0.001062     -0.258213     -0.194973
4   2      4.36211      1.70637      2.16251         0.010680      0.108610     -0.127432
5   2      0.87133      1.60949      4.99843         1.213916     -0.890206     -0.990336
6   2      3.36749     14.51372      4.79361         0.217411      0.697011     -0.155165
7   2     15.31960     14.65195      7.43910        -0.593762      0.379930     -0.221221
8   2      2.76521      1.43088      7.14488         0.338265     -0.306783     -0.088953
9   2      1.77269     14.59708      9.45045         0.107172     -0.063276      0.845723
10   2      4.24155      1.21867      9.79225         0.328534      0.226404     -0.495919
11   2      0.85056      1.28362     11.88774         1.949180      0.909706     -0.031910
12   2      3.29313     14.51845     12.24934         0.864718      0.679187      0.201007
13   2      0.18479      2.99298     29.30664         0.163069     -0.259922      0.559718
14   2      2.91025      4.54321     29.62464        -0.148845     -0.600504     -0.247632
15   2      1.68847      2.81812      2.27916         0.480801      0.301492     -0.496674
16   2      4.49123      4.71583      2.80122         0.701853     -2.633208     -1.668778
17   2      0.87366      4.39205      4.48630         0.071589      0.723405     -0.278662
18   2      3.38366      2.89406      4.69685         0.617318     -0.677223     -0.352555
19   2      0.13302      2.83087      7.22886        -0.803379      0.589853      1.014343
20   2      2.49792      4.33295      6.89214         0.243796     -0.291086      1.155299
21   2      1.95372      2.70631      9.47635        -0.825685      0.802856      0.376802
22   2      4.18885      4.23752     10.17344        -0.055989     -1.418117     -1.448763
23   2      0.99882      4.44335     11.82654         0.536644     -0.090052      0.266753
24   2      3.44866      2.74456     12.32484        -0.481839     -0.200816      0.101388
25   2      0.28502      5.75902     29.41034        -0.424035      0.320586      0.130767
26   2      2.76096      7.57974     29.51104        -1.168083     -1.154681      0.106363
27   2      1.67782      5.65727      2.01557        -0.242495      0.469395      0.622999
28   2      4.09016      7.19715      2.30757        -0.149636      1.867542      0.155721
29   2      0.59986      7.32643      4.46602         1.113170     -0.253531     -0.006610
30   2      3.44499      5.82670      4.87828        -2.914846      1.000147      0.230521
31   2      0.09526      5.77780      6.82358         0.777136      0.223668     -0.428692
32   2      2.43308      7.64982      7.16160         0.681537     -0.968759      0.603765
33   2      1.90642      5.82898      9.26458        -0.293134     -0.408553      0.141783
34   2      4.38222      6.94963     10.07254        -0.402448      2.076565     -1.482082
35   2      0.74140      7.24434     12.75084         0.431702      0.000069     -0.577462
36   2      3.72756      5.73518     12.29224        -1.146565     -0.271332      2.079461
37   2     15.05995      9.35670     29.67734         0.041836     -1.869044     -0.865888
38   2      2.35470     10.27575     29.55884         0.173725      0.297853      0.201175
39   2      1.50997      8.67804      2.17589        -0.101205      0.017438     -0.207204
40   2      3.96244     10.11135      2.31115        -2.286332      0.216745     -2.396205
41   2      0.68370     10.58403      4.73150         0.396540     -0.541885     -0.605435
42   2      2.89081      8.87087      4.80282         0.488018     -0.012875     -0.477791
43   2      0.12157      8.96345      6.91317        -0.517272      0.279759      0.204675
44   2      2.69567     10.41872      7.48005        -0.210227     -0.404027     -0.511688
45   2      1.23580      8.49798      9.86622         1.319607      0.113079     -0.266092
46   2      4.45192     10.44086      9.67930         0.221595     -0.557480      0.071543
47   2      1.00433      9.97203     12.09424        -0.798807      1.199658      0.547205
48   2      3.34764      8.70157     12.06604         0.480980     -0.808919      0.061669
49   2     15.01042     11.98212     29.72284         0.466703      1.239070     -0.516953
50   2      2.54542     13.05633     29.51964        -1.108408      0.444839     -0.237857
51   2      1.76061     12.00296      2.33668        -0.008271     -0.216558      0.079443
52   2      4.18650     13.51521      1.88897        -0.304167      0.094285      0.630807
53   2      0.82148     13.30530      4.91196         0.675803      0.470096     -0.850671
54   2      3.41467     11.65019      4.86082        -0.171218      0.288751     -0.173569
55   2      0.01021     11.95060      7.10783        -0.321490     -0.997332      1.172591
56   2      2.57714     13.20473      7.20167         0.562834      0.072774      0.244336
57   2      1.65701     11.59924      9.72419        -0.164286      0.349895      0.357389
58   2      4.24132     13.22839      9.94414         0.327933     -0.163668     -0.816961
59   2      1.05241     13.17110     12.41754        -0.859805     -0.793101     -0.354050
60   2      3.57354     11.46102     12.02794        -0.379509      0.523850      0.792659
61   2      4.91659      0.05658     29.11944         1.226974     -0.239220      0.345427
62   2      7.76604      1.65872     29.50314         0.278333     -0.747298      0.504768
63   2      6.70143     14.51191      2.16437         0.586652      0.610663      0.282590
64   2      9.27749      1.27791      2.74314        -0.698841      0.300948     -0.607828
65   2      6.18109      1.62015      4.33373         0.054857     -0.311105      0.119048
66   2      8.46621     14.02564      4.73948        -0.493939      1.660120      0.276535
67   2      5.26467     14.59184      7.26661        -0.054824     -0.499287      0.023572
68   2      8.00405      1.24652      6.96168        -0.175116     -0.143190      0.196028
69   2      7.05832     14.62154      9.53909        -0.434279      0.161916     -0.066638
70   2      9.53771      1.46692      9.76019         0.057327      0.150129      0.010987
71   2      5.86474      1.28343     12.11584        -0.362796     -1.142885      1.830121
72   2      8.64311     14.70823     12.57324        -0.494382     -0.122835     -0.502910
73   2      5.47613      3.08096     29.26874        -0.678002     -0.052961      0.533296
74   2      7.95067      4.48742     29.74464        -0.710617      0.496202     -0.362176
75   2      7.03160      3.33557      2.28352        -0.507135     -0.600697      0.109105
76   2      9.25719      4.83451      2.78291        -0.177077     -0.387646     -0.128393
77   2      5.86013      4.82486      5.29558         1.472536     -2.164241     -0.208144
78   2      8.39728      3.34128      5.10729        -0.127132     -1.102437     -0.336348
79   2      5.40984      2.51549      6.90791         0.086662      0.538376      0.306620
80   2      7.58712      4.42879      7.58084        -0.276358     -0.886355     -0.260878
81   2      6.67808      2.53040     10.05374         0.375000      1.603576     -2.491592
82   2      9.14907      4.49194      9.78133         0.801404     -0.727828      0.447186
83   2      6.43940      4.52230     13.27064        -0.541747     -0.412956     -0.451160
84   2      8.36383      2.71030     12.11814         0.914178      0.334747      0.761362
85   2      5.28018      5.87241      0.14606         0.724272     -0.139418     -0.436905
86   2      7.33909      7.55770     28.72604         0.771921     -0.515997      0.641664
87   2      6.88457      6.30899      3.20551        -0.377717     -0.169884     -0.727818
88   2      9.08056      7.62463      2.00134         1.204631     -0.032311     -0.196454
89   2      5.40820      7.45969      5.35240         1.158930      1.813066     -0.432558
90   2      8.65599      5.99646      5.26145         0.734131      0.753992      0.695294
91   2      4.89413      5.79423      7.57421        -0.409764      0.002141      1.158004
92   2      7.67584      7.15478      7.60399        -0.038113      0.516947      0.112795
93   2      6.61406      5.43306     10.03114         0.827976      0.096228     -0.015424
94   2      9.48521      7.35382     10.06224        -0.199798      0.165195     -0.243386
95   2      6.10414      7.14105     12.28734         0.521241     -0.089471      0.519788
96   2      8.64508      5.74706     12.35354         0.506667      0.401633     -0.088771
97   2      5.08025      8.77783     29.70154        -0.311240      0.593271     -0.597891
98   2      7.30883     10.30596     29.33774        -0.002611      0.487953     -0.746952
99   2      6.70467      8.77707      2.05572         0.155969      0.399074     -0.066015
100   2      9.06999     10.66416      1.51851         0.393543     -0.379547      0.703628
101   2      5.56513      9.99966      4.16203         2.267231      0.362956      3.108959
102   2      8.33671      8.70722      4.66505         0.126628     -0.575509     -0.489011
103   2      5.14690      8.76547      7.65079        -0.013602      0.179258      0.482422
104   2      7.72154      9.97349      6.98671        -0.273604      0.492450      0.508239
105   2      6.97710      8.57922      9.93794        -0.323525      0.526258     -0.201509
106   2      9.27522     10.56449      9.35726         0.296260     -1.107569      0.190133
107   2      5.91418      9.80101     12.55764         0.011477      1.029818     -0.412819
108   2      8.55192      8.94302     12.32564         0.433741     -0.360490     -0.036674
109   2      4.78177     11.73244     28.97454         0.822770     -0.303407      0.405169
110   2      7.61157     13.35252     29.61234         0.185516     -0.035619     -0.063308
111   2      6.24617     11.65733      1.86462         0.565085      0.223886      0.013960
112   2      9.56283     13.16858      2.38523        -1.293805      0.872295     -1.101191
113   2      5.82575     13.29876      4.68386         0.020335     -0.344578     -0.088865
114   2      8.27364     11.39346      4.51353        -0.424348     -0.317321     -0.277371
115   2      5.22274     11.73475      7.13144         0.414830     -0.090767      0.111668
116   2      7.87813     13.00458      7.23251        -0.665737     -0.025925      0.277378
117   2      6.87424     11.82345      9.90374        -0.156702     -0.243327     -0.373721
118   2      9.38364     13.21570      9.80585         0.553053      0.370223      0.259308
119   2      5.99363     13.19416     12.23044        -0.009043      0.102126      0.203382
120   2      8.32634     11.67616     12.46864         0.230044      0.404698     -0.232455
121   2     10.47093      0.71121     29.71664        -1.436544     -0.727625     -0.661387
122   2     12.83390      1.98054     29.77794         0.698520      0.607655     -0.300045
123   2     11.94855      0.27736      2.14045         0.042532     -0.324887      1.925512
124   2     14.51892      1.57085      2.17470        -0.144707     -0.599096      0.752749
125   2     10.62929      1.32514      5.10083         0.311187      0.072544     -0.719194
126   2     13.96419      0.12938      4.88178        -1.447502     -0.158129     -0.481002
127   2     10.54694     14.55540      7.36506        -1.733855      0.601087      0.274053
128   2     12.83350      1.37976      7.17642         0.655212      0.220259      0.201708
129   2     11.89831     14.56345      9.73310         0.707545      0.331550      0.335737
130   2     14.42026      1.57241      9.58639        -0.219002      0.073798      0.036450
131   2     11.26355      1.86675     12.37764        -0.452406     -0.881110     -0.333578
132   2     13.82043      0.45914     12.18044        -2.133646     -1.520062      0.194078
133   2     10.35736      3.37628      0.62359         0.050696      0.116346     -0.178730
134   2     12.57466      4.88615     29.40644         0.443796     -0.360325      0.397158
135   2     11.84878      2.83096      2.97244        -0.117683      0.638908     -0.391297
136   2     14.39831      4.26873      2.04919        -0.218263      0.763237     -0.170847
137   2     11.14032      4.40180      5.10125         0.220368      0.563645      0.162326
138   2     13.84660      2.97515      4.81616        -0.800055      0.413897      0.304452
139   2     10.50365      2.79255      7.32626        -0.474525      0.981596      1.250361
140   2     13.02458      4.78919      7.31376        -0.439434     -1.315958     -0.125815
141   2     11.88633      3.58116      9.85268        -0.480376     -1.211100     -0.750988
142   2     14.48358      4.45618      9.72120         0.935851     -0.921413     -0.979454
143   2     11.22922      4.56818     12.31444        -0.310442      0.680517      0.370372
144   2     13.76334      3.12546     12.41084         0.224506      0.569587     -0.364417
145   2     10.00722      6.21907     29.30354         0.135672      0.370483      0.235550
146   2     12.59922      7.59522     29.24784         0.018040      0.433090      0.143476
147   2     11.63344      5.86543      2.27547         0.799350     -0.180672     -0.971863
148   2     14.16554      7.38319      1.90602         1.066534     -0.703037     -0.784541
149   2     11.04237      7.50787      4.33251        -0.347917      0.465628      0.895567
150   2     13.60679      6.01529      4.28076        -0.614894     -0.958789      0.578700
151   2     10.56969      5.85054      7.71242        -0.788673     -0.466939     -0.307370
152   2     12.91343      7.49801      6.72942        -0.281169     -0.721662     -0.803301
153   2     12.11547      6.31905     10.02794        -1.437915      0.144457     -0.897258
154   2     14.50543      7.15141      8.96967        -0.345246      0.276367      0.348641
155   2     11.07559      7.58058     12.39934         0.161657      0.157402     -0.144971
156   2     13.85586      5.95421     11.83114         0.809969      0.556665      2.239271
157   2     10.07154      9.09626     29.21554        -0.158209     -0.261801      0.062590
158   2     12.49492     10.52322     29.26014         0.091831     -0.038990      0.107268
159   2     11.92822      8.86080      2.00779        -1.049363      0.767351     -0.186469
160   2     14.52425     10.49281      2.20609        -0.192777      0.199289      0.517250
161   2     10.93082     10.47107      4.62681         0.261996     -0.479670     -0.452621
162   2     13.75549      8.95310      4.23200        -1.106812      0.083316      1.086016
163   2     10.21521      8.49772      7.24217        -2.310864      0.270417     -2.846069
164   2     12.80682     10.14437      6.83328         0.094417      1.336985     -0.238746
165   2     11.79875      8.86427      9.06491         1.955577      0.997244      2.941068
166   2     14.48650     10.27757      9.36403         0.160530     -0.249125     -0.001966
167   2     11.02606     10.69326     12.01624        -0.201081     -0.431839      0.161385
168   2     13.65350      9.03278     11.98054        -0.292045     -0.317866     -0.130721
169   2     10.33189     12.30297     28.99184        -0.521571     -0.049892      0.629655
170   2     12.63627     13.58287      0.10309         0.810165     -0.402957     -1.600997
171   2     11.76421     11.78831      1.97278         0.633553     -1.054168      0.603563
172   2     14.37123     13.21761      2.44987         0.215686      1.236869     -0.408054
173   2     11.09351     13.36319      4.56705         1.155385     -0.126449      0.478120
174   2     13.55021     11.97658      4.69171        -0.423911     -0.615874     -0.014639
175   2     10.32142     11.78791      7.05203        -0.215818     -0.938199     -0.018242
176   2     12.69587     13.08855      7.08452         1.487105     -0.193114      0.400354
177   2     12.22743     11.67666      9.70010        -0.922114      0.466100     -0.567547
178   2     14.60651     13.36863     10.10724         0.266665      0.469924     -1.066218
179   2     11.10519     13.60703     12.24854         0.383465     -0.132694     -0.048256
180   2     13.71270     11.87862     12.07574        -0.067099     -0.459004      0.861277
