ITEM: TIMESTEP
0
ITEM: NUMBER OF ATOMS
180
ITEM: BOX BOUNDS pp pp pp
0.0 15.3362549999999995 
0.0 14.7573100000000004
0.0 29.7984842388000004
ITEM: ATOMS id type x y z fx fy fz
1   2     15.33621      0.00005     29.74944         0.003050     -0.000242     -0.014466
2   2      2.55604      1.47573     29.74944         0.002175      0.000568     -0.014428
3   2      1.70403      0.00005      2.37160         0.002943     -0.000331      0.062253
4   2      4.26007      1.47573      2.37160         0.003211      0.000860      0.062491
5   2      0.85201      1.47573      4.77837        -0.001561      0.000389     -0.026818
6   2      3.40805      0.00005      4.77837        -0.001140     -0.000332     -0.026746
7   2     15.33621      0.00005      7.18999         0.001495     -0.000333      0.025715
8   2      2.55604      1.47573      7.18999         0.000382      0.000625      0.025566
9   2      1.70403      0.00005      9.59675        -0.002996     -0.000331     -0.061702
10   2      4.26007      1.47573      9.59675        -0.002496      0.000808     -0.061224
11   2      0.85201      1.47573     12.01734        -0.003240      0.000418      0.014805
12   2      3.40805      0.00005     12.01734        -0.002848     -0.000240      0.014610
13   2     15.33621      2.95146     29.74944         0.003049     -0.000809     -0.014526
14   2      2.55604      4.42719     29.74944         0.002446      0.000962     -0.014416
15   2      1.70403      2.95146      2.37160         0.002657     -0.000998      0.062338
16   2      4.26007      4.42719      2.37160         0.003029      0.001596      0.062454
17   2      0.85201      4.42719      4.77837        -0.001204      0.000855     -0.026773
18   2      3.40805      2.95146      4.77837        -0.001302     -0.001516     -0.026920
19   2     15.33621      2.95146      7.18999         0.001494     -0.000746      0.025807
20   2      2.55604      4.42719      7.18999         0.000750      0.001052      0.025808
21   2      1.70403      2.95146      9.59675        -0.003087     -0.000819     -0.061660
22   2      4.26007      4.42719      9.59675        -0.002704      0.001121     -0.061550
23   2      0.85201      4.42719     12.01734        -0.002867      0.000806      0.014738
24   2      3.40805      2.95146     12.01734        -0.002992     -0.001527      0.014688
25   2     15.33621      5.90292     29.74944         0.003055     -0.000421     -0.014504
26   2      2.55604      7.37866     29.74944         0.002443     -0.000004     -0.014429
27   2      1.70403      5.90292      2.37160         0.002075     -0.000585      0.062363
28   2      4.26007      7.37866      2.37160         0.002870     -0.000004      0.062254
29   2      0.85201      7.37866      4.77837        -0.001040     -0.000001     -0.026800
30   2      3.40805      5.90292      4.77837        -0.001474     -0.000864     -0.026941
31   2     15.33621      5.90292      7.18999         0.001497     -0.000405      0.025932
32   2      2.55604      7.37866      7.18999         0.000826     -0.000002      0.025963
33   2      1.70403      5.90292      9.59675        -0.003333     -0.000454     -0.061550
34   2      4.26007      7.37866      9.59675        -0.002709     -0.000004     -0.061785
35   2      0.85201      7.37866     12.01734        -0.002694     -0.000005      0.014760
36   2      3.40805      5.90292     12.01734        -0.003110     -0.000810      0.014683
37   2     15.33621      8.85439     29.74944         0.003055      0.000386     -0.014513
38   2      2.55604     10.33012     29.74944         0.002441     -0.001015     -0.014450
39   2      1.70403      8.85439      2.37160         0.002075      0.000545      0.062365
40   2      4.26007     10.33012      2.37160         0.003025     -0.001680      0.062454
41   2      0.85201     10.33012      4.77837        -0.001200     -0.000939     -0.026776
42   2      3.40805      8.85439      4.77837        -0.001477      0.000819     -0.026937
43   2     15.33621      8.85439      7.18999         0.001500      0.000360      0.025928
44   2      2.55604     10.33012      7.18999         0.000745     -0.001136      0.025809
45   2      1.70403      8.85439      9.59675        -0.003334      0.000413     -0.061552
46   2      4.26007     10.33012      9.59675        -0.002701     -0.001206     -0.061551
47   2      0.85201     10.33012     12.01734        -0.002861     -0.000860      0.014773
48   2      3.40805      8.85439     12.01734        -0.003111      0.000773      0.014692
49   2     15.33621     11.80583     29.74944         0.003074      0.000990     -0.014538
50   2      2.55604     13.28154     29.74944         0.002141     -0.000414     -0.014321
51   2      1.70403     11.80583      2.37160         0.002656      0.001236      0.062327
52   2      4.26007     13.28154      2.37160         0.003219     -0.000637      0.062505
53   2      0.85201     13.28154      4.77837        -0.001558     -0.000167     -0.026811
54   2      3.40805     11.80583      4.77837        -0.001308      0.001758     -0.026926
55   2     15.33621     11.80583      7.18999         0.001500      0.000989      0.025811
56   2      2.55604     13.28154      7.18999         0.000377     -0.000403      0.025558
57   2      1.70403     11.80583      9.59675        -0.003085      0.001058     -0.061650
58   2      4.26007     13.28154      9.59675        -0.002503     -0.000584     -0.061239
59   2      0.85201     13.28154     12.01734        -0.003207     -0.000262      0.014699
60   2      3.40805     11.80583     12.01734        -0.003017      0.001707      0.014701
61   2      5.11208      0.00005     29.74944         0.003088     -0.000244     -0.014405
62   2      7.66813      1.47573     29.74944         0.002796      0.000409     -0.014492
63   2      6.81612      0.00005      2.37160         0.002828     -0.000332      0.062387
64   2      9.37216      1.47573      2.37160         0.002034      0.000579      0.062422
65   2      5.96410      1.47573      4.77837        -0.000319      0.000587     -0.026899
66   2      8.52014      0.00005      4.77837        -0.001128     -0.000333     -0.026890
67   2      5.11208      0.00005      7.18999         0.001387     -0.000333      0.025973
68   2      7.66813      1.47573      7.18999         0.001126      0.000396      0.025954
69   2      6.81612      0.00005      9.59675        -0.002609     -0.000331     -0.061569
70   2      9.37216      1.47573      9.59675        -0.003365      0.000449     -0.061478
71   2      5.96410      1.47573     12.01734        -0.002014      0.000573      0.014727
72   2      8.52014      0.00005     12.01734        -0.002748     -0.000242      0.014667
73   2      5.11208      2.95146     29.74944         0.003083     -0.000885     -0.014442
74   2      7.66813      4.42719     29.74944         0.002783      0.000886     -0.014451
75   2      6.81612      2.95146      2.37160         0.002975     -0.000763      0.062376
76   2      9.37216      4.42719      2.37160         0.002622      0.001095      0.062403
77   2      5.96410      4.42719      4.77837        -0.000904      0.001107     -0.026878
78   2      8.52014      2.95146      4.77837        -0.001287     -0.000754     -0.026865
79   2      5.11208      2.95146      7.18999         0.001464     -0.000951      0.025816
80   2      7.66813      4.42719      7.18999         0.001124      0.000848      0.025827
81   2      6.81612      2.95146      9.59675        -0.002707     -0.000750     -0.061629
82   2      9.37216      4.42719      9.59675        -0.003125      0.000919     -0.061593
83   2      5.96410      4.42719     12.01734        -0.002522      0.001098      0.014671
84   2      8.52014      2.95146     12.01734        -0.002916     -0.000727      0.014697
85   2      5.11208      5.90292     29.74944         0.003376     -0.000580     -0.014396
86   2      7.66813      7.37866     29.74944         0.002781     -0.000004     -0.014443
87   2      6.81612      5.90292      2.37160         0.003329     -0.000381      0.062417
88   2      9.37216      7.37866      2.37160         0.002904     -0.000004      0.062319
89   2      5.96410      7.37866      4.77837        -0.001200     -0.000001     -0.026806
90   2      8.52014      5.90292      4.77837        -0.001645     -0.000399     -0.026906
91   2      5.11208      5.90292      7.18999         0.001833     -0.000634      0.025570
92   2      7.66813      7.37866      7.18999         0.001121     -0.000001      0.025737
93   2      6.81612      5.90292      9.59675        -0.002604     -0.000401     -0.061661
94   2      9.37216      7.37866      9.59675        -0.003029     -0.000005     -0.061635
95   2      5.96410      7.37866     12.01734        -0.002861     -0.000005      0.014655
96   2      8.52014      5.90292     12.01734        -0.003283     -0.000429      0.014700
97   2      5.11208      8.85439     29.74944         0.003376      0.000545     -0.014405
98   2      7.66813     10.33012     29.74944         0.002777     -0.000939     -0.014485
99   2      6.81612      8.85439      2.37160         0.003330      0.000342      0.062418
100   2      9.37216     10.33012      2.37160         0.002619     -0.001180      0.062402
101   2      5.96410     10.33012      4.77837        -0.000899     -0.001191     -0.026880
102   2      8.52014      8.85439      4.77837        -0.001648      0.000354     -0.026903
103   2      5.11208      8.85439      7.18999         0.001836      0.000589      0.025565
104   2      7.66813     10.33012      7.18999         0.001119     -0.000932      0.025828
105   2      6.81612      8.85439      9.59675        -0.002604      0.000360     -0.061664
106   2      9.37216     10.33012      9.59675        -0.003121     -0.001004     -0.061593
107   2      5.96410     10.33012     12.01734        -0.002517     -0.001152      0.014707
108   2      8.52014      8.85439     12.01734        -0.003284      0.000392      0.014709
109   2      5.11208     11.80583     29.74944         0.003108      0.001065     -0.014454
110   2      7.66813     13.28154     29.74944         0.002762     -0.000254     -0.014386
111   2      6.81612     11.80583      2.37160         0.002973      0.001001      0.062364
112   2      9.37216     13.28154      2.37160         0.002041     -0.000357      0.062437
113   2      5.96410     13.28154      4.77837        -0.000314     -0.000365     -0.026892
114   2      8.52014     11.80583      4.77837        -0.001293      0.000996     -0.026870
115   2      5.11208     11.80583      7.18999         0.001470      0.001193      0.025821
116   2      7.66813     13.28154      7.18999         0.001121     -0.000175      0.025947
117   2      6.81612     11.80583      9.59675        -0.002706      0.000989     -0.061619
118   2      9.37216     13.28154      9.59675        -0.003373     -0.000226     -0.061493
119   2      5.96410     13.28154     12.01734        -0.001979     -0.000417      0.014622
120   2      8.52014     11.80583     12.01734        -0.002941      0.000908      0.014709
121   2     10.22417      0.00005     29.74944         0.002596     -0.000244     -0.014381
122   2     12.78024      1.47573     29.74944         0.003187      0.000568     -0.014440
123   2     11.92822      0.00005      2.37160         0.002865     -0.000330      0.062265
124   2     14.48429      1.47573      2.37160         0.003173      0.000376      0.062452
125   2     11.07619      1.47573      4.77837        -0.001435      0.000854     -0.026952
126   2     13.63226      0.00005      4.77837        -0.001361     -0.000333     -0.026900
127   2     10.22417      0.00005      7.18999         0.001034     -0.000333      0.025974
128   2     12.78024      1.47573      7.18999         0.001554      0.000625      0.025587
129   2     11.92822      0.00005      9.59675        -0.002716     -0.000331     -0.061787
130   2     14.48429      1.47573      9.59675        -0.002759      0.000396     -0.061592
131   2     11.07619      1.47573     12.01734        -0.003103      0.000799      0.014689
132   2     13.63226      0.00005     12.01734        -0.002959     -0.000241      0.014610
133   2     10.22417      2.95146     29.74944         0.002594     -0.000885     -0.014419
134   2     12.78024      4.42719     29.74944         0.002887      0.000962     -0.014424
135   2     11.92822      2.95146      2.37160         0.003020     -0.001499      0.062466
136   2     14.48429      4.42719      2.37160         0.002824      0.000861      0.062417
137   2     11.07619      4.42719      4.77837        -0.001263      0.001616     -0.026928
138   2     13.63226      2.95146      4.77837        -0.001060     -0.001007     -0.026973
139   2     10.22417      2.95146      7.18999         0.000953     -0.000950      0.025820
140   2     12.78024      4.42719      7.18999         0.001186      0.001053      0.025832
141   2     11.92822      2.95146      9.59675        -0.002708     -0.001022     -0.061553
142   2     14.48429      4.42719      9.59675        -0.002868      0.000850     -0.061565
143   2     11.07619      4.42719     12.01734        -0.002978      0.001606      0.014631
144   2     13.63226      2.95146     12.01734        -0.002616     -0.001019      0.014678
145   2     10.22417      5.90292     29.74944         0.002317     -0.000581     -0.014368
146   2     12.78024      7.37866     29.74944         0.002889     -0.000004     -0.014438
147   2     11.92822      5.90292      2.37160         0.003207     -0.000867      0.062508
148   2     14.48429      7.37866      2.37160         0.002673     -0.000003      0.062429
149   2     11.07619      7.37866      4.77837        -0.001096     -0.000001     -0.026754
150   2     13.63226      5.90292      4.77837        -0.000476     -0.000597     -0.026991
151   2     10.22417      5.90292      7.18999         0.000587     -0.000635      0.025577
152   2     12.78024      7.37866      7.18999         0.001104     -0.000002      0.025991
153   2     11.92822      5.90292      9.59675        -0.002506     -0.000813     -0.061230
154   2     14.48429      7.37866      9.59675        -0.002768     -0.000005     -0.061505
155   2     11.07619      7.37866     12.01734        -0.002830     -0.000005      0.014603
156   2     13.63226      5.90292     12.01734        -0.002100     -0.000584      0.014670
157   2     10.22417      8.85439     29.74944         0.002318      0.000546     -0.014377
158   2     12.78024     10.33012     29.74944         0.002882     -0.001016     -0.014458
159   2     11.92822      8.85439      2.37160         0.003208      0.000826      0.062509
160   2     14.48429     10.33012      2.37160         0.002820     -0.000946      0.062416
161   2     11.07619     10.33012      4.77837        -0.001258     -0.001701     -0.026930
162   2     13.63226      8.85439      4.77837        -0.000479      0.000552     -0.026987
163   2     10.22417      8.85439      7.18999         0.000590      0.000589      0.025573
164   2     12.78024     10.33012      7.18999         0.001181     -0.001138      0.025833
165   2     11.92822      8.85439      9.59675        -0.002507      0.000772     -0.061232
166   2     14.48429     10.33012      9.59675        -0.002865     -0.000936     -0.061565
167   2     11.07619     10.33012     12.01734        -0.002973     -0.001660      0.014666
168   2     13.63226      8.85439     12.01734        -0.002101      0.000547      0.014679
169   2     10.22417     11.80583     29.74944         0.002619      0.001065     -0.014432
170   2     12.78024     13.28154     29.74944         0.003153     -0.000414     -0.014334
171   2     11.92822     11.80583      2.37160         0.003018      0.001736      0.062455
172   2     14.48429     13.28154      2.37160         0.003182     -0.000154      0.062468
173   2     11.07619     13.28154      4.77837        -0.001430     -0.000631     -0.026945
174   2     13.63226     11.80583      4.77837        -0.001066      0.001249     -0.026979
175   2     10.22417     11.80583      7.18999         0.000959      0.001192      0.025825
176   2     12.78024     13.28154      7.18999         0.001550     -0.000403      0.025579
177   2     11.92822     11.80583      9.59675        -0.002707      0.001260     -0.061543
178   2     14.48429     13.28154      9.59675        -0.002767     -0.000173     -0.061608
179   2     11.07619     13.28154     12.01734        -0.003069     -0.000641      0.014583
180   2     13.63226     11.80583     12.01734        -0.002641      0.001200      0.014691
