ITEM: TIMESTEP
0
ITEM: NUMBER OF ATOMS
180
ITEM: BOX BOUNDS pp pp pp
0.0 15.3362549999999995 
0.0 14.7573100000000004
0.0 29.7984842388000004
ITEM: ATOMS id type x y z fx fy fz
1   2      1.89888      0.11972     25.73754        -1.223418     -0.477090      0.665898
2   2      0.80601      0.97016     28.46044        -0.007778     -0.567177     -0.552513
3   2      1.92547      0.16606      1.00107        -0.454244     -0.789557      0.388895
4   2      3.96948      1.55345      0.01312         0.404569      0.519542     -0.373977
5   2     15.01384      1.89541      5.68235         0.182183     -0.803456      0.412397
6   2      3.70967      0.19470      5.30386        -0.255100     -0.166101      0.000889
7   2     14.85246     14.71109      7.81468        -0.711881      0.587389     -0.257201
8   2      2.14742      1.91293      7.28763        -0.380075      0.094731     -0.513453
9   2      3.05309     14.34821     11.31694        -0.690326      0.257754      0.127810
10   2      5.01953      1.87168     11.29524         1.005592      0.225812      2.155618
11   2      1.59924      0.74863     13.93034        -0.954358     -1.049701     -0.792600
12   2      4.24146     14.46570     13.70174        -0.190488      0.514376      0.538370
13   2      3.77742      1.73880     26.40704        -0.243556     -0.183826      0.402268
14   2      2.21553      4.22303     28.20104         0.635794     -0.088145      0.193279
15   2      1.59933      2.80007      1.38286        -0.332302      0.483172      0.104341
16   2      3.01974      4.98040      3.48439        -0.411194     -0.645092      0.054897
17   2     15.05794      3.64965      3.49077         0.809465      0.312469     -0.983266
18   2      3.72600      2.08844      3.00379        -0.038890     -0.127254     -0.078519
19   2      0.04051      3.81081      8.48357         0.060831     -0.295224     -0.524753
20   2      3.45788      4.62625      8.15330        -0.235315      0.048723     -0.146468
21   2      1.94992      2.38790     11.56784         0.163332     -0.766380     -1.033897
22   2      6.37372      3.36003      9.24071         0.123408      0.895606      1.470142
23   2      1.61421      3.50342     13.94574        -1.348530      0.960509     -0.007399
24   2      3.73908      2.15166     14.64444         1.756952      0.914888      0.499113
25   2     14.81269      5.97014     28.76394         0.342472      0.679542     -1.295027
26   2      1.12147      8.38948      0.40270        -0.392116     -0.730712      0.061054
27   2      1.45053      5.55336      1.01534        -0.015616     -0.046375     -0.019962
28   2      2.87399      7.47653      2.44870         0.098798      0.812047      0.551834
29   2      0.00444      6.87116      3.71543         0.742292     -0.556429     -0.356094
30   2      1.32430      4.22392      5.88922         0.053917     -0.016684      0.048551
31   2     13.31896      3.99278      5.41780        -1.302911      0.680234      0.170544
32   2      4.16488      7.77365      7.53500        -0.023415     -0.084799      0.151441
33   2      2.48010      5.08116     11.34924         2.459750      0.708222     -0.056898
34   2      5.08163      5.90592     10.08324        -0.118902      0.285657     -0.128647
35   2      0.57073      8.24831     14.63634         0.586247      0.145361     -0.730347
36   2      3.15378      5.34774     15.01554         0.607839      0.021774     -0.397217
37   2     14.15880      8.68134     28.56904        -0.072648     -0.316025     -0.041880
38   2      1.90673     10.25602     28.40864        -0.724972      1.521587     -0.898269
39   2      0.85869     10.24223      2.73793         0.738526     -1.489177      0.416811
40   2      3.82869     10.48405      2.50218        -0.169517      0.100510      1.069940
41   2      1.03011     10.78800      5.46257        -1.320914     -0.161959      0.113799
42   2      3.04016      9.15932      5.11335         1.220819     -0.797455     -0.295239
43   2      0.11312      9.35194      8.63273         0.733627      0.047384     -0.535504
44   2      2.82163     10.28200      8.25390        -0.313704     -2.307387      1.263917
45   2      2.10852      7.36451      9.59358         1.782826     -0.133746     -0.612588
46   2      4.24011      8.74125     10.60404         0.442557      0.164346      0.177463
47   2     14.93219     10.99499     14.04744         1.186949      0.511128      0.625802
48   2      2.88544      7.27826     12.98584         0.125268      0.523479      0.226756
49   2     14.15920     14.05001     25.92784         1.022456     -0.532973      0.736500
50   2      0.92508     12.84854     27.49174         0.213415      0.308350      0.142395
51   2      2.50981     12.80675      3.62548        -0.085963      0.216500      0.990022
52   2      4.36753     13.90352      1.89887        -0.077487      0.212027      0.200098
53   2      1.31995     13.35474      6.23749        -0.670658      1.875598     -0.898376
54   2      3.41667     11.88577      6.43591         2.278798      0.640300     -1.597449
55   2      0.27470     12.02762      8.48611        -2.104220     -2.335777     -0.853930
56   2      2.00664     13.72945      8.87921         2.191134      3.067986      0.184044
57   2      2.34331     11.66539     10.51534         0.227612     -0.527153      1.413896
58   2      5.36623     13.38484     10.30724         0.446582      0.037985     -0.338417
59   2     14.92535     13.54733     12.75824         0.783040      0.782258      0.882336
60   2      2.51774     10.17307     13.26744        -0.332430     -0.479827     -0.569998
61   2      3.66396     12.63550     29.20164         0.440940      0.064870     -1.545813
62   2      7.75748      2.60734     27.91394        -0.413558     -0.247311      0.236157
63   2      6.72001     14.31509      0.61465        -0.475914     -0.551997     -0.128237
64   2      8.89800      1.11397      1.01987        -0.216573      0.590532     -0.037124
65   2      6.49101      1.41300      2.76065         0.006302     -0.486099      1.084405
66   2      9.66852     14.27924      3.49653         0.056754      0.073168      0.045946
67   2      3.90221      1.26394      9.16391        -0.707264     -0.633778     -1.653935
68   2      6.50437      0.57105      5.42679         0.119439     -0.124928      0.172638
69   2      7.81840      1.63870     11.00894        -0.274458      0.028087      0.350168
70   2      9.55803      0.03394      9.49191         0.986595      0.022285      0.613959
71   2      7.04365      0.74099     13.70514         0.105977      0.520981     -0.298417
72   2      9.75708      0.01965     14.15094        -0.549766      1.240689     -0.243622
73   2      4.99004      3.66343     27.61434         0.397911      0.583117      1.238842
74   2      6.30166      5.70939     28.97084         0.144932      0.343635      0.225617
75   2      6.43352      2.71111      0.52722         0.180791      0.809108     -0.994715
76   2      9.69191      4.44832     27.88204         0.137008      0.490167      0.309315
77   2      5.54942      3.92612      4.04947         0.032685      0.267790      0.333063
78   2      8.16985      3.83235      3.08379         0.258369     -0.508441     -0.001020
79   2      5.18880      2.67580      6.99622        -0.597132     -0.646298     -1.263192
80   2      7.94730      2.98232      5.73368         0.073629     -0.032560      0.331891
81   2      7.41786      1.07285      8.23500        -0.505209      0.438191     -0.746206
82   2     10.42532      4.59586      9.69578         0.022257     -1.071080      1.530896
83   2      6.07987      3.94778     15.13074        -0.155022     -0.040082     -0.842782
84   2      8.92137      3.15523     13.87004        -0.337007     -0.299832     -0.193874
85   2      3.39066      6.66820     28.60104         0.381043      0.018981      0.628143
86   2      6.23348      8.72346     28.89464         0.436128     -0.082646      0.229394
87   2      7.25922      6.28596      2.45548         0.060233      0.663278     -0.268307
88   2      8.94419      6.87976      0.00810        -0.329218      0.131448     -0.095606
89   2      4.73456      6.64391      4.99006         0.107111      0.030296     -0.004418
90   2      8.07653      6.23470      5.13555        -0.381242      0.305682     -0.049280
91   2      6.56247      5.22850      7.19298        -0.387880      0.310951     -0.032876
92   2      7.92318      7.90701      7.73850        -1.663663      1.149091     -0.772512
93   2      7.93766      5.86567      9.76045        -0.453447     -2.556855     -0.378861
94   2      9.73417      7.15535     12.88284         0.795023      2.980682     -0.771220
95   2      5.86479      7.71423     12.90374        -0.748776     -1.271847     -0.761967
96   2      7.75125      5.98344     13.85814        -1.464811     -1.732863      0.766103
97   2      3.71591      9.21049      0.15722         1.353385     -1.001707     -0.139076
98   2      8.73135     10.16471      0.07137        -0.357739     -0.520375      0.270709
99   2      6.04896      8.82989      2.25440        -0.013155     -0.709119     -0.944219
100   2     12.02013     11.01834      0.29133        -0.100133     -0.221410     -0.153808
101   2      6.79885     10.61664      4.01365        -0.244403     -0.259992      0.379211
102   2      9.08046      8.69859      2.55557        -0.996657     -0.042733     -0.295384
103   2      5.82730      9.79544      6.34056        -0.479156     -0.349552      0.659139
104   2      8.17580     12.47936      5.60902        -0.030851      0.458076      0.708267
105   2      7.63830      8.19517     10.58384        -0.453868      1.926253      0.692020
106   2      9.60397     10.00398     11.63414        -0.246212     -0.203840     -0.840520
107   2      5.38405     10.24163     13.36994        -1.034112      0.944292      0.313298
108   2      7.97023      9.24613     13.55414        -0.040640     -0.152743      0.561352
109   2      4.56285     10.74229     26.94934         0.073918      0.225283      1.496675
110   2      6.97083     12.24146     28.27734        -0.126013     -0.319209     -0.433412
111   2      5.75382     11.45216      0.68844         0.148026     -0.563945      0.823748
112   2      9.72702     13.06106      0.65613         0.333544      0.111790      1.045741
113   2      6.75711     13.18791      3.27077        -0.124671      1.021172     -0.159543
114   2      9.15799     11.54770      3.17061         0.903888     -0.308793     -1.060917
115   2      5.54673     11.12929      8.79806        -0.349005     -0.080841     -1.052971
116   2      7.77914     13.12590      8.41002        -1.938936     -0.442965      0.092545
117   2      6.75916     10.82786     11.11364         0.438466      0.132718      0.109465
118   2      8.70804     12.63399     12.06464        -0.186268      0.552071     -0.188738
119   2      6.19535     12.93643     13.00394         0.406357     -0.576839     -0.055939
120   2     10.81675     12.39388     13.79104         0.433394     -0.767372      0.231836
121   2      8.43567     14.55268     28.33134         0.400563      0.410118     -0.369512
122   2     15.09660      3.37944     28.98114        -0.345033     -0.343301      0.357338
123   2     11.42010      1.03928      1.79690         0.130795     -2.021072     -0.101697
124   2     14.14793      1.43733      0.97048         0.318962      0.115815      0.027247
125   2     10.84937      1.95828      4.47488        -0.964917      0.513443     -0.808183
126   2     13.23822      0.17533      3.78263         0.334873      0.027707      0.190436
127   2      9.54583      0.15791      6.52573        -0.009663     -0.042028     -0.351774
128   2     12.34904      1.30285      6.47517         2.521089     -1.884275     -0.430917
129   2     12.19038      0.75603      9.36037         0.646464     -0.444148      0.235831
130   2     14.93562      1.37373     10.23984         0.082726     -0.036921      0.273417
131   2     11.84063      2.03164     13.73734        -2.003091     -0.235999     -0.223142
132   2     14.33196      1.98035     13.16124         1.745506     -0.197020     -0.625666
133   2     10.92488      4.01657     25.51404         0.171146     -0.502371     -0.221320
134   2     12.62882      5.03627     27.35894         0.189815      0.141326     -0.203653
135   2     11.19328      2.59143     29.36244        -0.148631      0.546795      0.230948
136   2     13.95372      6.22345      1.38618        -0.908636     -0.093938      1.243614
137   2     10.25216      4.65658      5.38615         0.776259     -0.247390      0.016563
138   2     12.40894      3.31482      2.29333         0.981288      2.022497      0.415113
139   2     10.70208      2.56281      7.84365        -1.792935      1.140200      0.937763
140   2     12.63295      4.73867      7.97449         0.159425      0.102782      0.015717
141   2     12.92773      3.24551     10.54714         0.006280     -0.439997     -0.156750
142   2      0.05120      4.67500     11.10914        -2.364149     -0.689963     -0.122181
143   2     10.85360      4.95341     12.89714         0.919226     -2.548474      0.324318
144   2     13.31503      4.02231     14.76184         0.161352      0.555664     -0.330963
145   2     10.10698      6.48871     25.49464         0.230926      1.216020      1.120808
146   2     12.34149      8.22828     26.57374        -0.767353     -0.233364      0.291568
147   2     11.50205      5.50023     29.74550        -0.061444     -0.147162      0.679342
148   2     14.02792      9.14644      1.53398        -0.900604      0.044998      0.037192
149   2     11.33251      7.67409      5.85023        -0.337732      0.113396      0.852312
150   2     12.31099      6.46968      3.73366         0.240132     -1.454485     -0.673280
151   2      9.88005      6.30591      7.86749         1.645777      0.099217     -1.533738
152   2     12.60567      7.53880      8.52939        -0.268000     -0.048696     -0.106253
153   2     12.59036      5.85464     10.95614         0.456603      1.203586      0.277256
154   2     15.00800      7.31504     10.26584        -2.023582     -0.858293      0.733374
155   2     12.88696      6.91157     13.72974        -1.195671      0.088299     -1.494572
156   2     14.17028      6.37793     15.80154         0.979133     -0.200215      1.208950
157   2      9.30123      8.83939     27.32244         0.471813     -0.263738      0.296209
158   2     11.97704     11.02237     26.52104        -0.688524     -0.337754      0.311809
159   2     11.39735      7.83565      1.32704         0.167686      0.159872      0.080111
160   2      1.78037     12.17411      1.08809        -1.012754     -0.130421     -0.107224
161   2     11.45272      9.72579      3.53277        -1.838856      1.272207     -0.696082
162   2     13.56984      8.75694      4.40729         2.153336      0.219682      1.033616
163   2     10.04909      9.20584      9.07156         0.416458     -0.637195     -0.217716
164   2     13.12455      9.93539      9.85534         0.245548      1.677385     -2.025612
165   2     12.20407      8.74546     11.82094        -0.659112     -1.725580      1.267620
166   2     15.19063      9.58222     11.83144         0.503803     -0.300616     -0.408093
167   2     10.80900      9.61114     13.98004         0.567408      0.114739      1.261994
168   2     13.52444      9.26824     15.46804        -0.759883     -0.619733     -0.185348
169   2      9.78315     11.88748     28.07234         0.343348     -0.360215     -0.897715
170   2     14.08158     11.32168     28.05364         0.550140      0.363673      0.199311
171   2     12.23729     12.70930      2.43925        -0.655184      0.086242      0.139137
172   2     14.88206     12.47785      2.98336        -0.445738      1.076437      0.387912
173   2     10.96877     12.06507      5.24893         0.266195      0.177449      0.386237
174   2     13.63428     11.43554      5.49274         0.113561     -0.051249     -0.164900
175   2      9.85482     11.64344      7.97351         0.954955     -0.048695     -0.552351
176   2     12.47368     12.57973      7.80013         0.383998      0.067293      0.143075
177   2     11.07378     12.01604     10.67074        -0.110307      0.119162     -1.991661
178   2     14.03698     13.27953     10.27244        -0.969982      0.525550     -0.599785
179   2     11.21200     14.42090     11.86054         0.307172      0.869990     -0.251765
180   2     13.06425     11.57458     12.29974         0.012551     -0.235633      0.252451
