ITEM: TIMESTEP
0
ITEM: NUMBER OF ATOMS
108
ITEM: BOX BOUNDS pp pp pp
0.0 12.5220000000000002 
0.0 12.5220000000000002
0.0 12.5220000000000002
ITEM: ATOMS id type x y z fx fy fz
1   2     12.36709      0.03409     12.38232         0.635088     -0.070574      0.955832
2   2     12.40195      2.24026      2.01183         0.486168     -0.569478      0.183693
3   2      1.88906      0.07325      2.08524         0.315050      0.053282     -0.503388
4   2      2.09000      2.28147      0.14219        -0.406776     -0.447254     -0.294275
5   2      0.07514      0.06239      4.15275        -0.332883     -0.024216      0.238137
6   2      0.06119      2.12660      6.28568         0.068538     -0.049938     -0.053855
7   2      2.08048     12.41159      6.31066         0.326809      0.684277     -0.416932
8   2      2.24396      2.04793      4.31942        -0.274834     -0.111061     -0.827386
9   2      0.00732      0.07467      8.36771        -0.050342     -0.314566     -0.083968
10   2     12.47938      2.08741     10.38043         0.191773      0.302645      0.320097
11   2      2.12307      0.03385     10.53950        -0.372309      0.205278     -0.024301
12   2      2.00704      2.17410      8.46077         0.193114     -0.246397     -0.318391
13   2     12.45090      4.14826     12.49167         0.352583      0.184030     -0.040441
14   2      0.04152      6.28645      2.16640        -0.296561     -0.492801     -0.082780
15   2      2.22069      4.32887      2.18359        -0.542695     -0.379521     -0.079498
16   2      2.23151      6.42008      0.09906        -0.399450     -0.633215     -0.564205
17   2      0.05929      4.09850      4.17035         0.144533      0.150889     -0.192224
18   2     12.40568      6.24845      6.18649         0.552860     -0.056683      0.160108
19   2      2.20691      4.18877      6.17324        -0.589948     -0.055847      0.477151
20   2      2.20778      6.26860      4.28526        -0.898291      0.189629     -0.633202
21   2     12.47546      4.26952      8.24703         0.156496     -0.032114      0.379146
22   2      0.02625      6.27306     10.55467         0.288531     -0.517116     -0.397521
23   2      2.13546      4.13648     10.49301        -0.346531      0.527232      0.147737
24   2      2.21282      6.15526      8.27297        -0.503537     -0.217201     -0.077792
25   2     12.42579      8.36312      0.06690         0.663222     -0.353442      0.073597
26   2     12.45697     10.36509      2.14094         0.081216      0.569798     -0.321270
27   2      2.04640      8.21401      2.14118         0.146104      0.830114     -0.001383
28   2      2.02118     10.28073     12.46485        -0.327515      0.596056      0.526547
29   2     12.51479      8.32631      4.19091        -0.125895      0.102045     -0.196096
30   2      0.15483     10.50288      6.22524        -1.468916      0.098915     -0.202136
31   2      1.98560      8.45015      6.12213         0.860754     -0.549006      0.013270
32   2      2.11418     10.43910      3.95447         0.081839      0.154488      0.254147
33   2      0.22947      8.14514      8.24174        -1.016790      0.290160      0.359455
34   2      0.04671     10.44775     10.40535         0.022408     -0.063144     -0.153229
35   2      2.00490      8.28304     10.38346        -0.091275      0.373877      0.388994
36   2      2.03553     10.34783      8.25164         0.396705      0.098696      0.915062
37   2      4.07240      0.03150      0.10629         0.077228     -0.171279     -0.366145
38   2      4.20599      2.04992      1.94908        -0.012385      0.058839      1.137237
39   2      6.28439     12.47754      2.07213         0.304436     -0.022389     -0.119994
40   2      6.31855      2.05287     12.49031        -0.031311     -0.351946     -0.122495
41   2      4.21318     12.37591      4.11693        -0.668861     -0.109196     -0.029085
42   2      4.09292      2.02216      6.35605         0.389927     -0.422946      0.095060
43   2      6.24205     12.26894      6.30262        -0.225054      0.914674      0.623252
44   2      6.01206      1.89264      4.26681         0.751891      0.699940     -0.084854
45   2      3.98634     12.46781      8.37939         0.675146      0.091823      0.176091
46   2      4.17935      2.16992     10.56694         0.090032     -0.511228     -0.162188
47   2      6.36272     12.51151     10.28331        -0.870002      0.303820      0.365547
48   2      6.20710      2.12355      8.32078        -0.029705     -0.403270     -0.088903
49   2      4.27722      4.21418      0.17630        -0.147779      0.415402     -0.792451
50   2      4.24738      6.37447      2.09026         0.284219     -0.065482     -0.084759
51   2      6.30698      4.12470      2.12553        -0.011502      0.024830      0.511664
52   2      6.36846      6.21792      0.06001        -0.343714      0.497919     -0.199750
53   2      4.22627      4.26686      4.17709         0.309613     -0.666521     -0.272036
54   2      4.11743      6.40494      6.17985         0.573966      0.190554      0.674185
55   2      6.14071      4.23435      6.26528         0.561969     -0.224953     -0.196727
56   2      6.23149      6.28835      4.17522         0.289552     -0.066102     -0.107676
57   2      4.15935      4.05256      8.30092        -0.161178      0.346883      0.444571
58   2      4.02956      6.31580     10.41882         0.623720     -0.845269      1.009568
59   2      6.25028      4.14067     10.42758        -0.361997      0.266566     -0.023882
60   2      6.01719      6.20089      8.39290         0.704480      0.112369     -0.222399
61   2      4.23356      8.55505     12.40951         0.112759     -1.183267      0.138872
62   2      4.25183     10.37460      1.92349        -0.399932      0.607442      0.535527
63   2      6.22346      8.40860      2.02375         0.393543     -0.263658     -0.208792
64   2      6.36431     10.59334     12.39450         0.064736     -0.097157      0.334384
65   2      4.18002      8.46039      4.09464         0.229556      0.035628      0.171525
66   2      4.15461     10.31852      6.28108         0.119879      0.004041      0.178046
67   2      6.27722      8.32670      6.25746        -0.140438      0.114699      0.303429
68   2      6.36735     10.51685      4.24649        -0.371111     -0.572721     -0.616550
69   2      4.13422      8.28917      8.57759         0.308093      1.059426     -1.001943
70   2      4.13660     10.56139     10.56378         0.199569      0.128872     -0.930981
71   2      6.31685      8.36231     10.50401        -0.131466     -0.254047     -0.339043
72   2      6.36253     10.31659      8.38686        -0.533089     -0.095236     -0.133865
73   2      8.46406      0.00904     12.35024        -0.616718     -0.245189      0.940668
74   2      8.26203      2.06289      2.09832        -0.084796     -0.068610      0.123936
75   2     10.36191      0.05836      2.23166         0.202473     -0.815217     -0.987667
76   2     10.28916      2.09429      0.03183         0.277884      0.318374      0.060963
77   2      8.36371     12.50651      4.28408        -0.293105     -0.004291     -0.368668
78   2      8.28600      2.01080      6.27355        -0.364801      0.490366     -0.242471
79   2     10.46957      0.20044      6.20204         0.323100     -0.969543      0.309193
80   2     10.37570      2.01816      4.07654         0.225487      0.918944      0.509099
81   2      8.29073      0.02695      8.34698         0.514408     -0.159900     -0.452236
82   2      8.32850      2.17813     10.32629        -0.187378     -0.196086      0.251688
83   2     10.41433      0.08295     10.47589         0.123502     -0.300806     -0.862161
84   2     10.36911      2.05433      8.33232         0.354712      0.257644     -0.214191
85   2      8.24849      4.17721     12.50063         0.702864     -0.039205      0.019888
86   2      8.45270      6.13441      2.16952        -0.456300      0.700201     -0.339687
87   2     10.41992      4.22289      2.13165         0.164106     -0.147011     -0.072095
88   2     10.53458      6.20343      0.00867        -0.767346      0.057560      0.203002
89   2      8.37785      4.12975      4.22124        -0.442803     -0.166392      0.252522
90   2      8.32919      6.31866      6.24465         0.033460     -0.240343      0.065175
91   2     10.52037      4.17543      6.13167        -0.561654     -0.285719      0.323981
92   2     10.38732      6.34510      4.24628        -0.082425     -0.006623     -0.294876
93   2      8.38522      4.13789      8.19478        -0.133709      0.363565     -0.115858
94   2      8.27536      6.13932     10.30900         0.053197      0.100747      0.436822
95   2     10.42160      4.07349     10.38911         0.069250      0.502477      0.084781
96   2     10.41653      6.32008      8.47360         0.393071     -0.364522     -0.526192
97   2      8.33621      8.35896     12.41165         0.245458     -0.390229      0.430942
98   2      8.38835     10.31855      2.05191        -0.225201      0.838714     -0.369616
99   2     10.39934      8.37917      2.16103        -0.067697     -0.662724     -0.237069
100   2     10.48782     10.31809     12.49154        -0.422736      0.760306      0.173689
101   2      8.16714      8.39996      4.08340         0.591328     -0.472768      0.429934
102   2      8.48717     10.40742      6.32807         0.017489     -0.059459      0.231624
103   2     10.54847      8.47600      6.25932        -0.211813     -0.156078      0.476873
104   2     10.38931     10.40141      4.17940         0.247610      0.380769      0.214764
105   2      8.38658      8.20714      8.36542        -0.129286      0.518178     -0.115100
106   2      8.42984     10.43674     10.33922         0.115980     -0.274094      0.210238
107   2     10.51699      8.27747     10.50335        -0.278260      0.211447     -0.473630
108   2     10.51863     10.48403      8.47049         0.126614     -0.169382     -0.601408
