ITEM: TIMESTEP
0
ITEM: NUMBER OF ATOMS
108
ITEM: BOX BOUNDS pp pp pp
0.0 12.5220000000000002 
0.0 12.5220000000000002
0.0 12.5220000000000002
ITEM: ATOMS id type x y z fx fy fz
1   2     12.52200     12.52200     12.52200        -0.000000     -0.000000     -0.000000
2   2     12.52200      2.08700      2.08700         0.000000     -0.000000     -0.000000
3   2      2.08700     12.52200      2.08700        -0.000000      0.000000     -0.000000
4   2      2.08700      2.08700     12.52200         0.000000     -0.000000     -0.000000
5   2     12.52200     12.52200      4.17400        -0.000000      0.000000      0.000000
6   2     12.52200      2.08700      6.26100        -0.000000     -0.000000     -0.000000
7   2      2.08700     12.52200      6.26100         0.000000     -0.000000      0.000000
8   2      2.08700      2.08700      4.17400        -0.000000      0.000000      0.000000
9   2     12.52200     12.52200      8.34800        -0.000000      0.000000      0.000000
10   2     12.52200      2.08700     10.43500        -0.000000      0.000000      0.000000
11   2      2.08700     12.52200     10.43500         0.000000     -0.000000      0.000000
12   2      2.08700      2.08700      8.34800        -0.000000      0.000000      0.000000
13   2     12.52200      4.17400     12.52200        -0.000000      0.000000      0.000000
14   2     12.52200      6.26100      2.08700        -0.000000      0.000000     -0.000000
15   2      2.08700      4.17400      2.08700         0.000000     -0.000000     -0.000000
16   2      2.08700      6.26100     12.52200        -0.000000      0.000000      0.000000
17   2     12.52200      4.17400      4.17400        -0.000000     -0.000000      0.000000
18   2     12.52200      6.26100      6.26100        -0.000000     -0.000000     -0.000000
19   2      2.08700      4.17400      6.26100         0.000000      0.000000     -0.000000
20   2      2.08700      6.26100      4.17400        -0.000000     -0.000000      0.000000
21   2     12.52200      4.17400      8.34800         0.000000      0.000000      0.000000
22   2     12.52200      6.26100     10.43500         0.000000     -0.000000      0.000000
23   2      2.08700      4.17400     10.43500        -0.000000      0.000000      0.000000
24   2      2.08700      6.26100      8.34800         0.000000     -0.000000      0.000000
25   2     12.52200      8.34800     12.52200        -0.000000     -0.000000     -0.000000
26   2     12.52200     10.43500      2.08700        -0.000000      0.000000     -0.000000
27   2      2.08700      8.34800      2.08700         0.000000      0.000000     -0.000000
28   2      2.08700     10.43500     12.52200         0.000000      0.000000     -0.000000
29   2     12.52200      8.34800      4.17400         0.000000      0.000000     -0.000000
30   2     12.52200     10.43500      6.26100        -0.000000     -0.000000     -0.000000
31   2      2.08700      8.34800      6.26100         0.000000      0.000000     -0.000000
32   2      2.08700     10.43500      4.17400         0.000000      0.000000     -0.000000
33   2     12.52200      8.34800      8.34800        -0.000000      0.000000      0.000000
34   2     12.52200     10.43500     10.43500        -0.000000     -0.000000      0.000000
35   2      2.08700      8.34800     10.43500         0.000000      0.000000      0.000000
36   2      2.08700     10.43500      8.34800         0.000000     -0.000000      0.000000
37   2      4.17400     12.52200     12.52200         0.000000     -0.000000     -0.000000
38   2      4.17400      2.08700      2.08700        -0.000000      0.000000     -0.000000
39   2      6.26100     12.52200      2.08700         0.000000     -0.000000     -0.000000
40   2      6.26100      2.08700     12.52200        -0.000000      0.000000     -0.000000
41   2      4.17400     12.52200      4.17400        -0.000000     -0.000000     -0.000000
42   2      4.17400      2.08700      6.26100         0.000000      0.000000      0.000000
43   2      6.26100     12.52200      6.26100         0.000000     -0.000000     -0.000000
44   2      6.26100      2.08700      4.17400        -0.000000      0.000000     -0.000000
45   2      4.17400     12.52200      8.34800         0.000000     -0.000000      0.000000
46   2      4.17400      2.08700     10.43500         0.000000      0.000000      0.000000
47   2      6.26100     12.52200     10.43500        -0.000000     -0.000000      0.000000
48   2      6.26100      2.08700      8.34800         0.000000      0.000000      0.000000
49   2      4.17400      4.17400     12.52200        -0.000000      0.000000      0.000000
50   2      4.17400      6.26100      2.08700        -0.000000     -0.000000     -0.000000
51   2      6.26100      4.17400      2.08700         0.000000      0.000000     -0.000000
52   2      6.26100      6.26100     12.52200        -0.000000     -0.000000     -0.000000
53   2      4.17400      4.17400      4.17400         0.000000      0.000000      0.000000
54   2      4.17400      6.26100      6.26100         0.000000     -0.000000     -0.000000
55   2      6.26100      4.17400      6.26100        -0.000000     -0.000000      0.000000
56   2      6.26100      6.26100      4.17400         0.000000      0.000000      0.000000
57   2      4.17400      4.17400      8.34800        -0.000000      0.000000      0.000000
58   2      4.17400      6.26100     10.43500        -0.000000     -0.000000      0.000000
59   2      6.26100      4.17400     10.43500        -0.000000     -0.000000      0.000000
60   2      6.26100      6.26100      8.34800        -0.000000     -0.000000     -0.000000
61   2      4.17400      8.34800     12.52200         0.000000      0.000000     -0.000000
62   2      4.17400     10.43500      2.08700         0.000000     -0.000000     -0.000000
63   2      6.26100      8.34800      2.08700        -0.000000      0.000000     -0.000000
64   2      6.26100     10.43500     12.52200         0.000000      0.000000     -0.000000
65   2      4.17400      8.34800      4.17400         0.000000      0.000000     -0.000000
66   2      4.17400     10.43500      6.26100        -0.000000     -0.000000     -0.000000
67   2      6.26100      8.34800      6.26100        -0.000000      0.000000     -0.000000
68   2      6.26100     10.43500      4.17400        -0.000000     -0.000000      0.000000
69   2      4.17400      8.34800      8.34800         0.000000     -0.000000      0.000000
70   2      4.17400     10.43500     10.43500         0.000000      0.000000      0.000000
71   2      6.26100      8.34800     10.43500        -0.000000      0.000000      0.000000
72   2      6.26100     10.43500      8.34800         0.000000     -0.000000      0.000000
73   2      8.34800     12.52200     12.52200         0.000000     -0.000000     -0.000000
74   2      8.34800      2.08700      2.08700        -0.000000      0.000000     -0.000000
75   2     10.43500     12.52200      2.08700         0.000000     -0.000000     -0.000000
76   2     10.43500      2.08700     12.52200        -0.000000      0.000000     -0.000000
77   2      8.34800     12.52200      4.17400         0.000000     -0.000000     -0.000000
78   2      8.34800      2.08700      6.26100         0.000000     -0.000000     -0.000000
79   2     10.43500     12.52200      6.26100        -0.000000      0.000000     -0.000000
80   2     10.43500      2.08700      4.17400         0.000000     -0.000000      0.000000
81   2      8.34800     12.52200      8.34800        -0.000000      0.000000      0.000000
82   2      8.34800      2.08700     10.43500         0.000000     -0.000000      0.000000
83   2     10.43500     12.52200     10.43500        -0.000000     -0.000000      0.000000
84   2     10.43500      2.08700      8.34800        -0.000000      0.000000      0.000000
85   2      8.34800      4.17400     12.52200         0.000000      0.000000     -0.000000
86   2      8.34800      6.26100      2.08700         0.000000     -0.000000     -0.000000
87   2     10.43500      4.17400      2.08700        -0.000000      0.000000     -0.000000
88   2     10.43500      6.26100     12.52200         0.000000     -0.000000     -0.000000
89   2      8.34800      4.17400      4.17400        -0.000000      0.000000     -0.000000
90   2      8.34800      6.26100      6.26100        -0.000000     -0.000000      0.000000
91   2     10.43500      4.17400      6.26100        -0.000000     -0.000000     -0.000000
92   2     10.43500      6.26100      4.17400        -0.000000     -0.000000      0.000000
93   2      8.34800      4.17400      8.34800         0.000000      0.000000     -0.000000
94   2      8.34800      6.26100     10.43500         0.000000     -0.000000      0.000000
95   2     10.43500      4.17400     10.43500        -0.000000      0.000000      0.000000
96   2     10.43500      6.26100      8.34800         0.000000     -0.000000      0.000000
97   2      8.34800      8.34800     12.52200         0.000000      0.000000     -0.000000
98   2      8.34800     10.43500      2.08700         0.000000     -0.000000     -0.000000
99   2     10.43500      8.34800      2.08700         0.000000      0.000000     -0.000000
100   2     10.43500     10.43500     12.52200         0.000000     -0.000000     -0.000000
101   2      8.34800      8.34800      4.17400         0.000000      0.000000      0.000000
102   2      8.34800     10.43500      6.26100         0.000000      0.000000     -0.000000
103   2     10.43500      8.34800      6.26100        -0.000000      0.000000      0.000000
104   2     10.43500     10.43500      4.17400         0.000000      0.000000      0.000000
105   2      8.34800      8.34800      8.34800         0.000000      0.000000      0.000000
106   2      8.34800     10.43500     10.43500        -0.000000     -0.000000      0.000000
107   2     10.43500      8.34800     10.43500        -0.000000      0.000000      0.000000
108   2     10.43500     10.43500      8.34800        -0.000000     -0.000000      0.000000
