ITEM: TIMESTEP
0
ITEM: NUMBER OF ATOMS
108
ITEM: BOX BOUNDS pp pp pp
0.0 12.5220000000000002 
0.0 12.5220000000000002
0.0 12.5220000000000002
ITEM: ATOMS id type x y z fx fy fz
1   2      0.12276     12.43641     12.43283        -0.500640     -0.126320      0.897349
2   2     12.43227      1.81589      2.18399         0.804018      1.254794     -0.912766
3   2      2.09670     12.37018      2.09094         0.063364      1.014383     -0.266262
4   2      2.14018      2.21946     12.51864        -0.177530      0.274309      0.335770
5   2      0.05338     12.42920      4.13608         0.100285     -0.764178      1.036176
6   2      0.01374      1.96360      6.04887         0.035938      0.185943      1.043918
7   2      2.13840      0.10370      6.20307         0.456166     -0.000831      0.500257
8   2      2.02456      2.04074      4.06801         0.753835      0.056711     -0.083782
9   2     12.39140      0.01927      8.31397         0.823009      0.023796      0.280778
10   2     12.49133      1.69386     10.47567        -0.057644      2.020351     -0.449875
11   2      2.14243     12.51188     10.49377         0.471514     -0.491398     -0.634922
12   2      2.15359      1.97171      8.39919        -1.005514      0.383268     -0.898591
13   2     12.49098      4.09943      0.16062         0.157382      0.001298     -0.243814
14   2     12.23817      6.31800      1.91649         0.658878     -0.671657      0.074604
15   2      2.27025      4.20067      2.19149        -0.748767     -0.070063     -1.005254
16   2      2.07903      6.32915      0.11630        -0.095018     -0.325563     -0.339015
17   2      0.01636      4.10342      4.08060         0.182116      0.365456     -0.558879
18   2      0.09627      6.30216      6.26015        -0.850142     -0.095260     -0.670831
19   2      1.84960      4.12041      6.16772         0.765630     -0.143059      0.211329
20   2      2.05292      6.38211      4.01180        -0.462876     -0.218098      0.361151
21   2      0.00616      4.11385      8.29652        -0.410341     -0.715559      0.418154
22   2     12.48743      6.18012     10.44428         0.192557     -0.360209      0.595515
23   2      2.01055      4.14880     10.39124         0.059985      0.037571      0.272761
24   2      1.80785      6.23418      8.32586         1.658044     -0.439260      0.325079
25   2      0.07030      8.41890     12.37393        -0.261106     -0.137994     -0.200104
26   2     12.47733     10.54019      1.98726         0.394940     -1.166885      0.154937
27   2      1.76336      8.40926      2.17017         0.805237      0.185373     -0.567025
28   2      2.11212     10.45682     12.45437         0.323194     -0.247172      0.015717
29   2     12.50150      8.48918      4.26156         0.217783     -0.373217      0.002291
30   2      0.25203     10.53902      6.48447        -1.103953     -0.425220     -1.140006
31   2      2.07560      8.25291      6.21700        -0.392784      0.778888      0.059154
32   2      2.21027     10.50699      4.22858        -0.929542     -0.406926      0.142828
33   2      0.03752      8.24127      8.48034        -0.186469      0.855606     -0.214179
34   2      0.03014     10.44528     10.35318        -0.003169     -0.075217     -0.022082
35   2      2.19716      8.39585     10.35413        -0.647462      0.076583      0.459678
36   2      2.15902     10.27643      8.27490         0.693610      0.798139      0.577702
37   2      4.06383      0.22953      0.04205         0.670480     -0.290695      0.202815
38   2      4.37156      2.27629      2.23733        -0.370311     -0.303215     -0.476785
39   2      6.19407      0.05728      2.14425         0.347145      0.109045     -0.387529
40   2      6.30136      2.24827     12.50803        -0.484577     -0.503900      0.645829
41   2      4.17812      0.01942      4.16380         0.200668      0.642943      0.040311
42   2      4.40406      2.16828      6.22080        -0.776345     -0.165597      0.087827
43   2      6.21820     12.45491      6.28048         0.174017      0.122187     -0.064043
44   2      6.34282      2.24897      4.23843         0.298032     -0.255239     -0.162930
45   2      4.28415      0.11939      8.39552        -0.083962     -0.893448     -0.639180
46   2      4.09574      2.13027     10.22721         0.794788      0.831663      1.261009
47   2      6.22949      0.06420     10.59212        -0.344148     -0.203007     -0.135969
48   2      6.29918      2.17788      8.37246        -0.095712     -0.059949      0.011829
49   2      4.31371      4.33370     12.43035        -0.367329     -0.064162     -0.043083
50   2      4.11381      6.45976      2.10528         0.254691      0.081075     -0.128631
51   2      6.25876      4.38901      2.29248         0.135047     -0.387376     -0.083989
52   2      6.39960      6.25905      0.24297        -0.286335     -0.117902     -1.022138
53   2      3.97454      4.31931      4.30675         0.834921     -0.157084      0.248251
54   2      4.12440      6.49577      6.13085         0.185179     -1.524150      0.285153
55   2      6.18052      4.44352      6.24674         0.155261     -0.061428     -0.490045
56   2      6.37817      6.53841      4.09929        -0.144190     -0.960156      0.164949
57   2      3.98449      4.31469      8.07643         0.122448      0.066891      0.470044
58   2      4.00865      6.34393     10.28213         0.449502     -1.067334      0.430299
59   2      6.40212      4.16535     10.40896        -0.562374      0.513472     -0.203775
60   2      6.34959      6.33889      8.34132        -0.841333     -0.891424      0.268946
61   2      4.10810      8.46172     12.42124        -0.066637     -0.565504      0.534530
62   2      4.04846     10.44247      2.13488         0.720970     -0.471160     -0.633916
63   2      6.31615      8.33860      2.05867        -0.996455      0.670766      0.490469
64   2      6.07283     10.39277     12.49302         0.005719      0.709149      0.559151
65   2      4.19630      8.49929      4.29946        -0.169049     -0.616559     -1.380249
66   2      4.22604     10.43964      6.18368        -0.210674      0.462834      1.269869
67   2      6.31353      8.24929      6.27103        -0.114638      0.661795     -0.172848
68   2      6.17462     10.40909      4.16694         0.588970      0.302729     -0.167938
69   2      4.13558      8.24267      8.25922         0.240312      0.376190     -0.009982
70   2      4.30291     10.45178     10.22147        -0.389342      0.250961      0.327432
71   2      6.15973      8.22278     10.44626        -0.107101     -0.231468      0.224069
72   2      6.28719     10.24786      8.24339        -0.202186      0.195455      0.006046
73   2      8.35794     12.47626     12.50489        -0.196819     -0.078510      0.687177
74   2      8.51164      2.02325      2.18109        -1.070539     -0.673628     -0.215914
75   2     10.62207     12.37270      2.23601        -2.315253     -0.022751     -0.446892
76   2     10.47451      1.99800      0.04195        -0.031093     -0.096274     -0.099322
77   2      8.33069     12.44255      4.32423         0.024066      0.105772     -0.295856
78   2      8.28112      2.01547      6.36126        -0.034154      0.052416     -0.371610
79   2     10.42512      0.03112      6.43858        -0.533331     -0.813023     -0.751492
80   2     10.39003      1.92863      4.30710        -0.332852      0.074970      0.006968
81   2      8.11848     12.31723      8.41906         0.595059      0.310340      0.075307
82   2      8.29164      1.96269     10.48844         0.503378      0.088533     -0.510315
83   2     10.38232     12.41152     10.45382        -0.570576     -0.010608     -0.161774
84   2     10.36977      2.08322      8.23742         0.005408      0.429404      0.592574
85   2      8.37195      4.07737     12.48091         0.480451      0.494164      0.394477
86   2      8.58167      6.20022      2.05040         0.314467     -0.025096      0.253340
87   2     10.42084      3.90663      2.24423         0.378966      1.035913     -0.489193
88   2     10.36847      6.33031     12.22534         0.043824     -0.421836      0.839939
89   2      8.41468      4.20038      4.28150        -0.077554      0.226683      0.125995
90   2      8.49680      6.47788      6.14709         0.190139     -1.241918     -0.234833
91   2     10.65789      4.19671      6.15200        -0.736663     -0.015178      0.513105
92   2     10.61600      6.27714      4.18883        -0.429207      0.193023     -0.151472
93   2      8.25219      4.21619      8.13043         0.680749      0.082576      0.303491
94   2      8.31120      6.34671     10.43036        -0.375102     -0.487563      0.316277
95   2     10.39284      3.91499     10.38037         0.249925      0.302238      0.048591
96   2     10.39913      6.14510      8.48137         0.058518     -0.615721     -0.631037
97   2      8.24012      8.49159      0.22676         0.758841     -0.469918     -0.916972
98   2      8.24233     10.50483      2.22968         0.473292      0.465772     -0.342966
99   2     10.54234      8.42834      1.89690        -0.512174      0.206623      0.630760
100   2     10.33490     10.43181     12.47135         0.129313     -0.014596     -0.159822
101   2      8.44443      8.45347      4.14564         0.204296     -0.600265     -0.674119
102   2      8.41026     10.26968      6.18277        -0.504170      0.642619      1.046273
103   2     10.60943      8.31917      6.50785         0.062316     -0.021383     -0.291391
104   2     10.51283     10.25688      4.48166         0.290511      1.208448     -0.732810
105   2      8.33348      8.19786      8.27092         0.439615      1.067634      0.526132
106   2      8.06350     10.20875     10.52980         0.846047      0.542469     -0.413478
107   2     10.40183      8.29750     10.24335        -0.104058      0.735278      0.830363
108   2     10.38648     10.42349      8.42743        -0.255617      0.078609     -0.183060
