ITEM: TIMESTEP
0
ITEM: NUMBER OF ATOMS
108
ITEM: BOX BOUNDS pp pp pp
0.0 12.5220000000000002 
0.0 12.5220000000000002
0.0 12.5220000000000002
ITEM: ATOMS id type x y z fx fy fz
1   2     12.47977      0.08504      0.04179        -0.079706      0.019809     -0.440013
2   2     12.40453      2.08328      2.03479         0.694721     -0.594039      0.224773
3   2      2.10197      0.02404      1.99754         0.238122      1.040670      0.420922
4   2      2.09661      2.39795     12.50619         0.092568     -1.500799      1.437644
5   2      0.13849     12.51210      4.16502        -0.395968      0.906914      0.525486
6   2     12.46969      2.03080      6.39537         0.118904     -0.030214     -0.424212
7   2      2.04669      0.02820      6.27980         0.379774     -0.104502     -0.050996
8   2      2.04314      2.05891      4.23929         1.040119     -0.365070     -0.293298
9   2      0.13614     12.47849      8.39231        -0.552737      0.083096     -0.086622
10   2     12.38535      2.15782     10.45973        -0.104668     -0.025941      0.419401
11   2      2.01423      0.35738     10.45506         0.037080     -1.029723      0.458966
12   2      2.11143      2.17715      8.39524         0.328674     -0.117710     -0.332722
13   2     12.35893      4.14183      0.19186        -0.044307      0.049686     -1.107168
14   2      0.21300      6.10750      2.04771        -1.129875      0.809890      0.511868
15   2      2.08012      4.20841      2.13321         1.134592     -0.586796      0.115676
16   2      2.20037      6.34924      0.01790        -0.200808     -0.689951      0.013860
17   2      0.18877      3.96885      4.22018        -1.105901      0.934715     -0.160979
18   2      0.20064      6.24853      6.33336        -0.642958      0.362857     -0.911759
19   2      1.98900      4.16416      6.32692         0.585342     -0.351165     -0.126859
20   2      2.03419      6.36534      4.20463         0.371027     -0.480398     -0.126906
21   2      0.04841      4.03162      8.41582        -0.355078      0.624220      0.518316
22   2     12.37705      6.25196     10.70320         0.559217     -0.479530     -0.174635
23   2      1.95765      4.07723     10.58636         0.047600      1.631011     -1.190613
24   2      1.87440      6.26378      8.40825         0.770189     -0.148529      1.060666
25   2     12.46772      8.38311      0.27367         0.355633      0.506006     -0.399691
26   2     12.46863     10.72160      2.24344        -0.047083     -1.483469     -1.026901
27   2      2.17423      8.27384      2.07033        -0.000505      0.392686     -0.262580
28   2      2.03130     10.63640      0.11682        -0.033984     -0.917996     -0.950658
29   2     12.51578      8.32037      3.98988         0.217214      0.102419      0.120198
30   2      0.05142     10.40222      6.00502        -0.041786     -0.124217      0.394855
31   2      2.10003      8.41164      6.22747         0.090641     -0.003281     -0.446385
32   2      2.21024     10.37904      3.95985        -0.238302     -0.247957      0.601992
33   2      0.00514      8.43779      8.27281        -0.153257      0.243059      0.421658
34   2      0.01128     10.52225     10.44571         0.113000     -0.049474      0.178351
35   2      1.94555      8.29694     10.59550        -0.096979      0.430295     -0.305715
36   2      1.95371     10.36136      8.28966         0.523907      0.366484      0.312262
37   2      4.11610      0.18253     12.36504        -0.018759     -0.738601      0.377504
38   2      4.13986      2.06438      2.12796        -0.086918      0.476011      0.282448
39   2      6.14843      0.06953      2.16366         0.052965     -0.647099      0.102131
40   2      6.28283      1.94733      0.08952        -0.339761      0.735138     -0.492342
41   2      4.09624     12.41763      4.16562         0.293437      0.680161      0.221242
42   2      4.15016      2.25653      6.26189         0.324215     -0.787561     -0.382076
43   2      6.13518     12.48282      6.37119         0.072788      0.334474     -0.124347
44   2      6.41618      2.12869      4.24662        -0.563182     -0.410663      0.356418
45   2      3.98378     12.50469      8.39552         0.361758      0.070340     -0.014501
46   2      4.23329      2.18267     10.43179         0.246682      0.272934     -0.463325
47   2      6.19945      0.09742     10.29622        -0.274053     -0.192589     -0.437412
48   2      6.50437      2.26708      8.13587        -1.294004     -0.872064      0.489260
49   2      4.43371      4.17738      0.02360        -0.473507     -0.072060      0.495894
50   2      4.28089      6.18182      2.02512        -0.056154      0.099499      0.087932
51   2      6.39511      4.16884      2.22744        -0.678257     -0.213723     -0.345122
52   2      6.43791      6.32879      0.04073         0.121794     -0.073632     -0.363353
53   2      4.27544      4.31403      4.25495        -0.519560     -0.858197     -0.491158
54   2      3.97281      6.15368      6.29766         0.499832      0.837502      0.289713
55   2      6.41889      4.33699      6.27483        -0.244509     -0.285092     -0.435606
56   2      6.19046      6.28659      4.24784         0.286033      0.196211     -0.004891
57   2      4.23239      4.15157      8.25055        -0.142353      0.174909      0.666483
58   2      4.02015      6.08268     10.43068         0.093443      0.451226     -0.322270
59   2      6.20857      4.27939     10.45453         0.624462     -0.316005      0.085246
60   2      6.26671      6.20660      8.44088        -0.518933      0.692641     -0.350861
61   2      4.23582      8.34272     12.48073         0.010568      0.016365      0.158365
62   2      4.20367     10.44898      1.94105         0.523295     -0.022299     -0.161951
63   2      6.35964      8.33244      2.04093        -0.427628      0.168961     -0.357085
64   2      6.31111     10.35497     12.25167        -0.355127      0.034369      0.593234
65   2      4.20365      8.26524      4.07291         0.035403      0.235302      0.365153
66   2      4.15090     10.46803      6.28004        -0.186313     -0.268333      0.009966
67   2      6.20751      8.37962      6.38169        -0.348837     -0.264143     -0.120647
68   2      6.18001     10.35279      4.18346        -0.200220      0.218285     -0.376537
69   2      3.94097      8.28188      8.35843         0.466080     -0.241382      0.117950
70   2      4.02406     10.35000     10.44088        -0.387064      0.451455      0.162723
71   2      6.14115      8.31497     10.35337         0.360601     -0.603960      0.028163
72   2      6.08405     10.37234      8.50767         0.490382      0.284257     -0.543935
73   2      8.13987     12.44549     12.29668         0.597281     -0.113552      0.518312
74   2      8.25461      1.98266      2.05137         0.359418     -0.303294      0.434058
75   2     10.37748     12.49670      2.13162        -0.164771      0.149831     -0.321528
76   2     10.20287      1.87050     12.49929         0.386626      0.419139      0.074504
77   2      8.43884     12.35646      4.10622        -0.528779      0.923336      0.327867
78   2      8.44538      1.94450      6.28100         0.425125      0.102434     -0.888948
79   2     10.63153     12.46749      6.26476        -0.525243     -0.073029     -0.359316
80   2     10.45594      2.12444      4.11886         0.072129     -0.808172      0.952015
81   2      8.42274     12.43905      8.29052        -0.757511     -0.174936     -0.121518
82   2      8.23260      2.11604     10.32073        -0.013159      0.129027      0.351556
83   2     10.41272      0.18662     10.30130         0.164935     -1.201635      0.356753
84   2     10.34841      2.05585      8.33521         0.200392      0.737118     -0.402773
85   2      8.32538      4.01745      0.04013        -0.119729      0.653749     -0.313463
86   2      8.38558      6.10078      2.19925         0.258962      0.462260     -0.218540
87   2     10.39093      3.97033      2.11727        -0.170284      1.001221     -0.252363
88   2     10.40526      6.35240      0.23197         0.164459     -0.869118     -0.196133
89   2      8.48377      4.08225      4.17015        -0.066037      0.270789      0.841442
90   2      8.43874      6.28248      6.12936         0.209345     -0.366661      0.022255
91   2     10.70981      4.32993      6.37785        -1.030225     -0.651118     -0.495434
92   2     10.57923      6.19768      4.18376         0.092941     -0.248143     -0.466394
93   2      8.29331      4.29984      8.39832         1.210012      0.343156     -0.075912
94   2      8.48582      6.44891     10.38149        -0.065239     -0.390604      0.476275
95   2     10.31119      4.12481     10.48730         0.142682      0.416432      0.004606
96   2     10.73022      6.31006      8.34997        -0.789429     -0.246854      0.531817
97   2      8.59862      8.37759      0.07078        -1.060755      0.196980     -0.415217
98   2      8.22975     10.52061      1.98805        -0.030384     -0.110359     -0.160408
99   2     10.41735      8.48214      2.15074        -0.105235     -0.384543      0.050924
100   2     10.42061     10.54599     12.40194         0.250518      0.196123      0.312176
101   2      8.19965      8.22692      4.08619         0.650948      0.428302      0.371320
102   2      8.19910     10.45612      6.07755         0.410725     -0.397429      0.963213
103   2     10.62768      8.20625      6.17213        -0.584022      0.547477      0.049569
104   2     10.32648     10.30393      4.15896         0.148481      0.202693      0.472672
105   2      8.37176      8.12295      8.15621         0.307184      1.038357      0.349379
106   2      8.44626     10.39279     10.37084        -0.165783     -0.378671     -0.553737
107   2     10.61953      8.36529     10.46205        -0.359164      0.396972     -0.253215
108   2     10.36193     10.45685      8.22993         0.260561     -0.632972      0.013600
