ITEM: TIMESTEP
0
ITEM: NUMBER OF ATOMS
108
ITEM: BOX BOUNDS pp pp pp
0.0 12.5220000000000002 
0.0 12.5220000000000002
0.0 12.5220000000000002
ITEM: ATOMS id type x y z fx fy fz
1   2      0.13820     12.43776     12.40090         0.469581      0.627702      0.600992
2   2     12.45359      2.53223      2.17501         0.414676     -0.819751      0.245929
3   2      1.89538     12.46434      2.43355        -0.301922      0.495786     -1.391731
4   2      2.29292      1.85100      0.37154        -1.300592      0.617573     -0.818452
5   2     12.34181     12.27346      4.24052        -0.048268      0.190891      0.285407
6   2      0.05573      2.20415      6.21198        -0.258189     -0.067128     -0.037224
7   2      1.94920     12.46396      6.17862        -0.373844      0.031160      0.108758
8   2      1.85271      2.11267      4.13610         0.375616      0.301223     -0.016481
9   2      0.11827     12.50538      8.41543         0.417328      0.975540     -0.684680
10   2      0.05989      2.12414     10.61716        -0.039724      0.014323     -0.348123
11   2      2.37631      0.06539     10.38101        -0.565581     -0.252375      0.453933
12   2      2.32696      2.06075      8.30820        -1.809852      0.534793      0.831496
13   2     12.47708      4.23990      0.01544        -0.208757      0.245937     -0.180712
14   2     12.46178      6.36556      2.25249        -0.300928     -0.306307     -1.443570
15   2      2.23006      4.34121      2.17572        -0.274761      0.197756     -0.150480
16   2      2.09294      6.00489     12.28242         0.025218      1.516142      0.834178
17   2      0.12789      4.55414      4.24773         0.203817     -1.903117     -0.527283
18   2      0.17776      6.25759      6.22082        -0.364066      0.598497      0.892985
19   2      2.31772      4.17217      6.34990        -1.212026      0.434701     -0.237721
20   2      2.28664      6.45084      4.36212         0.092775     -0.970096     -1.137723
21   2      0.14739      4.19543      8.25674        -0.390106     -0.494274      0.250405
22   2     12.41290      6.30479     10.48588         0.095393     -0.233389     -0.043710
23   2      1.98039      4.19231     10.35409        -0.262072     -0.745889      0.430675
24   2      2.01269      6.43758      8.34654         1.020733     -1.211513      0.486846
25   2     12.24308      8.50760     12.31925         0.140589     -0.268271      0.486422
26   2      0.08897     10.07089      2.07794        -0.784014      0.966341     -0.420104
27   2      2.07894      8.09771      1.89854         0.297893     -0.034981     -0.289490
28   2      2.02633     10.31293     12.49290         0.180480      0.445599      0.383852
29   2      0.02203      8.30124      4.13880        -0.112183      0.144192      0.181455
30   2      0.16717     10.21199      6.44195        -0.591548      1.648472     -1.055897
31   2      2.15827      8.43839      6.13732         0.140121     -0.516239      0.652715
32   2      2.04516     10.34604      4.08281        -0.495248     -0.275297      0.822663
33   2      0.21568      8.26904      8.26984        -1.481053      0.234775      0.745094
34   2     12.39897     10.61897     10.27085         1.516851     -0.719524      1.793090
35   2      1.96716      8.49454     10.49422         0.240728     -0.799038      0.093933
36   2      2.24254     10.37763      8.41017        -0.188271      0.697669      0.416614
37   2      4.12514     12.40129      0.21360         0.509789     -0.133901     -0.498033
38   2      4.21358      2.19520      2.18273         0.039354     -0.353238      0.542282
39   2      6.31441     12.44447      2.02450        -0.655407      0.017922      0.368485
40   2      6.23867      2.30890      0.09729         0.543384     -1.729579     -1.115778
41   2      4.06376     12.47853      4.23623         0.528455      0.165479     -0.292126
42   2      3.95830      1.98899      6.13217         1.049194     -0.027198     -0.611302
43   2      6.19614     12.40678      6.22195        -0.330449      0.856592      0.539597
44   2      6.23295      1.91446      4.04160        -0.207420      0.328843      0.553675
45   2      4.06629      0.09892      8.14536         1.236482     -1.187986      0.416370
46   2      4.31415      2.07734     10.63346        -0.421274      0.299597     -0.135350
47   2      6.16339     12.51649     10.29696         0.045753      0.154138      0.382210
48   2      6.11797      2.19306      8.36907        -0.066545     -0.878864      0.056379
49   2      4.17927      4.26574      0.01632        -0.198820     -0.179983     -0.535792
50   2      4.39528      6.44529      1.93556        -0.787125     -1.036488      0.972731
51   2      6.24257      4.13339      1.90690        -0.421279      0.972234      1.597026
52   2      6.33713      6.26847      0.00503         0.239358      0.313171     -0.488875
53   2      4.07881      4.20266      4.30599         0.815415      0.229607     -0.788989
54   2      4.26043      6.43604      6.46203         0.136399     -0.804119     -0.752630
55   2      5.98269      3.95669      6.36114         0.226183      0.378210     -0.806605
56   2      6.14761      6.45671      4.20586         0.004592     -1.384356      0.282084
57   2      3.90734      4.32210      8.54332         1.627526     -0.087877     -0.162348
58   2      4.34741      6.40040     10.35455        -1.272349     -1.154190      0.749517
59   2      6.42123      4.11149     10.33120        -0.531562     -0.120093      0.546810
60   2      6.40336      6.03339      8.26190        -0.849385      0.668530      0.754875
61   2      4.55384      8.50939      0.29174        -1.422079     -0.558902     -0.515708
62   2      3.99304     10.52573      2.22282         0.848946     -0.302695     -0.561139
63   2      6.54612      8.43146      2.32928         0.044410      0.118433     -0.768344
64   2      6.32227     10.36610     12.49746         0.158553      1.932818      0.395282
65   2      4.17705      8.42048      4.09482        -0.014317     -0.061768     -0.130080
66   2      4.01491     10.38714      6.23654         0.881675      0.415149      0.270235
67   2      6.39896      8.29673      6.23181        -0.071858     -0.227017      1.228037
68   2      6.18993     10.28531      4.38413        -0.220241      0.740814     -1.203256
69   2      4.09926      8.31442      8.37169         0.518679      0.776634      0.247090
70   2      4.27004     10.28022     10.67360        -0.500748      0.346919     -0.794586
71   2      6.23427      8.15571     10.29510         1.120816      1.155264     -0.401474
72   2      6.13006     10.42836      8.40215        -0.163990     -0.245627     -0.492093
73   2      8.18512     12.45072      0.01550         0.177788      0.649671     -0.415424
74   2      8.39853      2.03014      2.11439        -0.365545     -0.176276     -0.368310
75   2     10.42339      0.00181      2.23582         0.391297     -0.205017     -0.395952
76   2     10.52591      2.04198      0.20978        -0.080103     -0.334895     -0.797330
77   2      8.26391     12.40469      4.20354         0.178493      0.433309      0.091398
78   2      8.29594      2.00361      6.07818        -0.186286      0.287479      0.080164
79   2     10.53139      0.00535      6.39890        -0.237138     -1.057558     -0.743313
80   2     10.36737      2.05505      4.14896         0.446672      0.343810      0.442244
81   2      8.36984      0.33948      8.42134        -0.829812     -0.851427     -0.733966
82   2      8.45382      2.03603     10.62338        -0.336329      0.457665      0.345078
83   2     10.43347      0.13773     10.25032         0.216703      0.119487      0.457130
84   2     10.50096      2.02334      8.10288         0.691076      1.319052      0.797905
85   2      8.40752      4.35896      0.04308        -0.506703     -1.363904     -0.617190
86   2      8.22565      6.09392      2.24420         0.322165      1.511768     -0.607635
87   2     10.28005      4.20774      1.99141         0.697681      0.505100      0.672726
88   2     10.06247      6.47073     12.38600         1.271624      0.205729      0.384062
89   2      8.05137      4.13336      3.98783         0.287239     -0.711913      1.588613
90   2      8.20297      5.85992      6.38039         0.218713      1.220595     -1.441669
91   2     10.43234      4.37498      6.14199         0.580471     -2.292717      0.572053
92   2     10.37287      6.14432      4.26659        -0.059817      0.697137     -1.292376
93   2      8.44564      3.91169      8.21963        -0.150624     -0.443341      0.518897
94   2      8.30639      6.12938     10.35613        -0.216839      0.920405     -0.829106
95   2     10.28210      4.21075     10.36185         1.023770     -0.691873      0.261182
96   2     10.56188      6.08604      8.28809        -0.216578      0.802594      0.084678
97   2      8.20400      8.62453     12.16885         1.383353     -0.842760      0.550951
98   2      8.39684     10.49199      2.20767        -0.010667     -0.442004     -0.753572
99   2     10.20486      8.26104      1.92833         0.206868      0.377072      0.261121
100   2     10.42700     10.90129     12.41494        -0.221263     -1.220068      0.358091
101   2      8.54597      8.13920      4.34020        -0.659694      0.310407     -0.162239
102   2      8.15140     10.49797      6.25031         1.345611     -0.214767      1.052871
103   2     10.64868      8.31495      6.11279        -0.420805     -0.246838      1.035220
104   2     10.26382     10.34328      4.25939         0.697907      0.261864     -0.067481
105   2      8.62357      8.35938      8.15827        -0.655309     -0.282436     -0.167226
106   2      8.28120     10.56889     10.15311         0.438283     -0.029870      0.068525
107   2     10.44411      8.34385     10.24008        -0.423067     -0.361697      0.451949
108   2     10.69352     10.27945      8.39156        -1.708041      0.647857     -1.744310
