ITEM: TIMESTEP
0
ITEM: NUMBER OF ATOMS
108
ITEM: BOX BOUNDS pp pp pp
0.0 12.5220000000000002 
0.0 12.5220000000000002
0.0 12.5220000000000002
ITEM: ATOMS id type x y z fx fy fz
1   2     12.43030     12.51244     12.39953        -0.446635     -0.139651      0.895567
2   2     12.33903      2.01357      2.11060         0.713823      0.055434     -0.219031
3   2      1.98428      0.13249      2.25146         0.387535      0.244765     -0.114947
4   2      2.02816      2.08817      0.05818        -0.259748      0.357598      0.270849
5   2     12.44169     12.51782      4.28108         0.750044     -0.216508     -0.267887
6   2      0.04476      2.10220      6.30567        -0.433964     -0.422271     -0.243911
7   2      2.10906     12.26968      6.46335        -1.133614      1.346040     -0.403184
8   2      1.94582      2.11121      4.31509         0.575357     -0.425645     -0.741263
9   2     12.48677     12.38904      8.45518         0.280659      0.152197     -0.360953
10   2     12.38108      1.99444     10.47690         0.168789      0.447663     -0.080327
11   2      2.01873      0.10386     10.64702         0.251355     -0.383246     -1.158571
12   2      1.95835      2.25535      8.30141         0.546921     -0.858320      0.095224
13   2     12.45156      4.24372      0.19796         0.014999     -0.242816     -0.297227
14   2      0.04522      6.30530      2.14244         0.131512     -0.332411     -0.381882
15   2      2.13584      4.04314      2.08039        -0.450550      0.103958      0.261293
16   2      2.18491      6.17632     12.49458        -0.090315     -0.294873      0.276751
17   2     12.34036      4.15495      4.08551         0.698395      0.113121      0.103648
18   2     12.43129      6.36911      6.04476        -0.167424     -0.024091      0.217999
19   2      1.97379      4.18611      6.07258         0.300627     -0.252160      0.976983
20   2      2.08748      6.12367      4.23669         0.009349      0.393017     -0.878407
21   2     12.43758      4.05416      8.39495        -0.076806      0.649812     -0.304522
22   2     12.50041      6.15559     10.58531         0.203171     -0.272922     -0.507829
23   2      2.10709      4.13019     10.35145        -0.462162      0.058657      0.300808
24   2      1.84520      6.12495      8.15866         0.375608      0.040313      0.430907
25   2      0.31307      8.26709     12.42783        -0.669793      0.735318      0.407262
26   2      0.32303     10.49764      1.85193        -1.061601     -0.220432      0.397814
27   2      2.26988      8.33771      1.98893         0.199123     -0.268954      0.198779
28   2      2.28094     10.57741     12.47220         0.263570     -0.650648     -0.262431
29   2      0.13647      8.43158      3.87494        -0.146472      0.368832      0.641419
30   2      0.17940     10.28194      6.32398        -0.483512     -0.022807     -0.189013
31   2      2.06706      8.19687      6.18022         0.138880      0.296669      0.409563
32   2      2.22244     10.37098      4.19645        -0.472777     -0.063097      0.232533
33   2     12.41585      8.18316      8.42046         1.230007      0.604778     -0.767328
34   2     12.41836     10.40409     10.41755         0.580989     -0.166823      0.113225
35   2      2.15784      8.19763     10.40467         0.030385      0.310694     -0.214070
36   2      2.13896     10.25634      8.53593        -0.478631      0.317591      0.192130
37   2      4.14875      0.15717      0.12636         0.020399     -0.114679     -0.134704
38   2      4.36045      2.30569      2.11562        -0.868699     -0.309916     -0.164257
39   2      6.08876      0.08953      2.09839         0.781871     -0.491842      0.025261
40   2      6.34664      2.25510      0.04996        -0.314659      0.052435     -0.541537
41   2      4.11520     12.48256      4.21552        -0.181710      0.552837      0.023784
42   2      4.10678      1.91288      6.30575        -0.568622      1.177256     -0.265314
43   2      6.10339      0.17292      6.31140         1.106638     -0.760456      0.144733
44   2      6.22507      2.11869      4.16260        -0.062926     -0.344022      1.024880
45   2      3.99291      0.13377      8.48858         0.185205     -0.388235      0.320105
46   2      4.11617      2.05684     10.51349         0.129518      0.140015      0.188650
47   2      6.15352     12.50546     10.36681         0.110547     -0.428422      0.652873
48   2      6.36374      2.07192      8.70794        -0.364780      0.781390     -0.983315
49   2      4.15461      4.15801     12.39517         0.383952      0.154170      0.249478
50   2      4.12232      6.04619      2.19328        -0.091476      0.775296     -0.523376
51   2      6.31776      4.38891      2.14107        -0.020171      0.177505     -0.736807
52   2      6.36777      6.33655     12.30258        -0.259561      0.109474      1.509623
53   2      4.31580      4.19036      4.24253        -0.435904     -0.410030      0.734774
54   2      4.22000      6.02619      6.49984        -0.129437      0.191094     -0.366813
55   2      6.43060      4.08715      6.58280        -0.344658     -0.168215     -0.908560
56   2      6.40733      6.10898      4.36194        -0.459716      0.263082     -0.024777
57   2      4.33986      3.91360      8.40020        -0.539226      0.492978      0.034352
58   2      4.05000      6.16232     10.24240         0.518766     -0.010356     -0.109025
59   2      6.42050      4.41600     10.51244        -0.299598     -1.116489     -0.606488
60   2      6.34032      6.38406      8.31424        -0.004376     -0.614681     -0.451704
61   2      4.25561      8.17994     12.45592         0.034229      0.345808      0.090418
62   2      4.12747     10.46512      2.20820         0.379046     -0.264891     -0.675474
63   2      6.14465      8.08714      2.16962        -0.244470      0.578558     -0.237829
64   2      6.06921     10.48870     12.49178         0.506308     -0.033667      0.750178
65   2      4.15810      8.08817      4.34195         0.161340      0.299386     -0.409885
66   2      4.08314     10.54863      6.48898         1.072115     -1.069106     -0.487694
67   2      6.36409      8.29769      6.07189        -0.946264      0.062571      1.340323
68   2      6.08767     10.44806      4.22601         0.178202     -0.004460     -0.176794
69   2      4.15336      8.30403      8.29078         0.180660     -0.224390     -0.136271
70   2      4.38684     10.32140     10.39732        -0.794065     -0.079670     -0.421521
71   2      6.42613      8.20117     10.27863        -1.060899      0.947794      0.698351
72   2      6.34157     10.30644      8.14778        -0.173039      0.341496      0.302133
73   2      8.20489      0.06263     12.42546        -0.118362     -0.337957     -0.021025
74   2      8.11124      2.32775      2.16198         0.742564     -0.949832     -0.457877
75   2     10.14631      0.25815      1.88973         0.241338     -1.207049      0.663767
76   2     10.30108      2.21187      0.08370         0.423692      0.072387     -0.791310
77   2      8.26049     12.49679      4.09335        -0.016115      0.097661      0.206746
78   2      8.49621      2.05395      6.31817        -0.664984      0.004061     -0.676327
79   2     10.49499     12.31316      6.24978        -0.345209      0.213527      0.077296
80   2     10.44643      1.96845      4.21418        -0.463175      0.049908      0.322394
81   2      8.24874      0.18857      8.35334         0.600674     -1.171354     -0.059249
82   2      8.37616      2.22845     10.55616         0.328889     -0.080016      0.027897
83   2     10.36203     12.46483     10.37449        -0.478378      0.012951      0.014480
84   2     10.49917      1.99776      8.13539        -0.019588      0.012491      0.848557
85   2      8.70565      4.48635      0.08480        -1.020301     -0.364945     -0.398838
86   2      8.37713      6.36873      2.11624         0.024611      0.059082     -0.086380
87   2     10.32558      4.10762      2.25338         0.163254      0.564282      0.007301
88   2     10.50597      6.58996      0.05832         0.100171     -0.460012     -0.270010
89   2      8.25946      4.08141      4.27203         0.534814      0.284865      0.448414
90   2      8.51750      6.39684      6.27142        -0.295504     -0.174889      0.133991
91   2     10.41107      4.32102      6.09738         0.113569     -0.435704      0.364752
92   2     10.40777      6.48543      4.05711         0.023434     -0.342630     -0.020493
93   2      8.46465      4.25004      8.36395         0.299952     -0.214152      0.186642
94   2      8.53053      6.27358     10.43107         0.455120      0.019193     -0.048280
95   2     10.51190      4.11390     10.35474        -0.190526      0.118941      0.438070
96   2     10.53799      6.24715      8.24660        -0.225742     -0.388452      0.087316
97   2      8.18603      8.55001     12.49303         0.224259     -0.226784      0.214415
98   2      8.33167     10.48117      2.05087        -0.315698      0.120636     -0.011970
99   2     10.45718      8.45346      1.98310         0.022753      0.545452      0.535733
100   2     10.41400     10.32020     12.44806         0.050024      0.494033      0.022080
101   2      8.20419      8.41612      4.14938         0.803135      0.174603     -1.078737
102   2      8.25860     10.43164      6.11306         0.236504      0.653295      0.240563
103   2     10.40458      8.52747      6.02116         0.400205     -0.222146      0.064958
104   2     10.56050     10.52542      3.97662        -0.226246     -0.079062     -0.269943
105   2      8.46310      8.34345      8.49863        -0.046363     -0.199185     -1.257868
106   2      8.22421     10.47123     10.33587         0.303729      0.440805      0.210974
107   2     10.54607      8.32127     10.31101        -0.506310      0.167794      1.121951
108   2     10.36277     10.27489      8.16290         0.238170      0.799803      0.452266
