ITEM: TIMESTEP
0
ITEM: NUMBER OF ATOMS
108
ITEM: BOX BOUNDS pp pp pp
0.0 12.5220000000000002 
0.0 12.5220000000000002
0.0 12.5220000000000002
ITEM: ATOMS id type x y z fx fy fz
1   2     12.45366      0.03914     12.49401         0.237512     -0.357876     -0.207715
2   2      0.13209      2.01386      2.03630        -0.124280      0.196406      0.892398
3   2      2.06768     12.50915      1.98985         0.327726     -0.166753      0.263535
4   2      2.11092      2.17529     12.46800        -0.210029     -0.281161     -0.295619
5   2      0.01600      0.02222      4.25807        -0.390654      0.616411     -0.573825
6   2      0.04938      2.20861      6.31489        -0.361104     -0.110674      0.083299
7   2      2.07571      0.09616      6.13412         0.028903     -0.232763      0.700066
8   2      2.28806      2.14009      4.16917        -0.890991     -0.058789     -0.913977
9   2      0.10896     12.49508      8.37971        -0.161417      0.431028     -0.475045
10   2      0.02276      2.01345     10.30784        -0.265206      0.241889      0.210158
11   2      2.01943      0.01094     10.61672         0.406143      0.267154     -0.607025
12   2      2.16677      2.20344      8.28283        -0.581541     -0.157306      0.063679
13   2     12.46086      4.08930      0.12437        -0.179677      0.142560     -0.735792
14   2      0.13134      6.07058      2.12758        -0.688925      1.011243     -0.101398
15   2      2.14286      4.23424      1.97967         0.677905     -0.934705      0.918461
16   2      2.09599      6.15241      0.06450         0.493484      0.527797     -0.214979
17   2     12.50177      4.31717      4.30302         0.388297     -0.569690      0.360354
18   2     12.44562      6.34839      6.39472        -0.255635     -0.356462     -0.520165
19   2      2.25757      4.17119      6.10836        -0.325307     -0.169022      0.505500
20   2      2.16588      6.18907      4.23667        -0.015971      0.156737     -0.130530
21   2     12.51908      4.25242      8.41524        -0.391103     -0.317129     -0.914528
22   2      0.14644      6.30162     10.63240        -1.080550      0.023153     -0.058440
23   2      1.94937      4.29173     10.37934         0.792350     -0.872192      0.606976
24   2      2.03562      6.13835      8.26738         0.645694      0.095721      0.260678
25   2     12.45452      8.48709      0.13336        -0.171584     -0.791685     -0.544214
26   2      0.11725     10.43375      2.12453        -0.444637      0.421238     -0.193224
27   2      1.93909      8.22724      2.25718         0.262161     -0.034999     -0.536263
28   2      1.92455     10.39085     12.38102        -0.017579      0.043077      0.330713
29   2     12.44701      8.41243      4.20352         0.652342     -0.680022      0.133142
30   2      0.04112     10.63864      6.27583        -0.082419     -0.616575      0.518190
31   2      2.33335      8.11896      6.36868        -0.076847      0.725896     -0.529356
32   2      1.98105     10.40910      4.17319         0.613070      0.032538      0.375795
33   2      0.33523      8.37900      8.27994        -0.870340      0.496215      0.271661
34   2     12.21375     10.48270     10.26418         0.873678     -0.472630      0.635810
35   2      2.11796      8.20149     10.52816        -0.063646      0.165676      0.048092
36   2      2.23088     10.47231      8.64796        -0.340382      0.095909     -0.755201
37   2      4.22123     12.47969     12.49092        -0.256469     -0.155212     -0.178204
38   2      4.18826      1.93754      1.92050        -0.513759      0.313276      0.417517
39   2      6.08169     12.36264      2.28134         0.510118     -0.270485     -0.660898
40   2      6.32560      1.93521      0.05907        -0.185913      0.538108      0.002885
41   2      4.16759     12.38321      4.23299        -0.300390     -0.059353     -0.505237
42   2      4.25960      1.98379      6.10330         0.564034      0.334874      0.542025
43   2      6.31824     12.35182      6.16236        -0.187224      0.664214     -0.104995
44   2      6.19863      2.09819      3.82057         1.022791     -0.418081      0.842068
45   2      4.04760      0.17593      8.28289         0.055633     -0.532742      0.128528
46   2      4.25715      2.09915     10.38552        -0.531131     -0.235493      0.083349
47   2      6.23056      0.07011     10.32098         0.000099     -0.396393      0.207562
48   2      6.27956      2.04868      8.28419        -0.024370      0.260048     -0.040787
49   2      4.23726      3.97389     12.48529        -0.102650      0.811368      0.056287
50   2      4.21091      6.38268      2.10661        -0.444071     -0.503175     -0.199095
51   2      6.21095      4.37672      1.96659         0.434689     -0.331544     -0.241351
52   2      6.36321      6.30250     12.44426        -0.017840     -0.048083      0.187871
53   2      4.38908      4.03246      4.05006        -0.795875      1.020052      0.158240
54   2      4.33785      6.10642      6.24434        -0.007498      0.505197      0.194786
55   2      6.25289      4.13400      6.33789        -0.187025     -0.169346     -0.802501
56   2      6.15274      6.45400      4.10620         0.540391     -0.399886      0.625669
57   2      4.10839      4.17287      8.44320         0.482043     -0.068709     -0.391457
58   2      4.30254      6.12076     10.46144        -0.530548      0.140069      0.369832
59   2      6.31663      4.04622     10.58595         0.548042      0.122604     -0.462851
60   2      6.33477      6.06844      8.49381        -0.490992      1.071908     -0.056623
61   2      4.11855      8.25827      0.05506         0.021953     -0.422447     -0.327355
62   2      3.96853     10.21760      1.89304         0.199946      0.887959      0.594195
63   2      6.28212      8.37943      2.07306        -0.376276      0.521275     -0.217918
64   2      6.35444     10.60357      0.08374        -0.558683     -0.384058     -0.217195
65   2      4.11104      8.42733      4.15355         0.039490      0.004232      0.305685
66   2      4.12063     10.43979      6.23719        -0.521296     -0.301696      0.204910
67   2      6.26130      8.42662      6.42311        -0.331291     -0.417848     -0.177815
68   2      6.29470     10.28677      4.20287        -0.062306      0.014804     -0.011825
69   2      4.16654      8.29568      8.56193         0.062493     -0.244719     -0.706676
70   2      4.11996     10.33040     10.64005         0.470834      0.582969     -0.072730
71   2      6.12297      8.37440     10.53326         0.988171      0.144176     -0.112814
72   2      5.95058     10.57554      8.32716         0.569683     -0.372863      0.611562
73   2      8.32753      0.13590      0.01312         0.463157     -0.719550      0.152069
74   2      8.45134      2.08806      2.04448        -0.073194     -0.163654      0.435056
75   2     10.51620     12.42284      2.04478        -0.070127      0.303164      0.645452
76   2     10.53369      2.02228      0.09620        -0.300727      0.441289     -0.476397
77   2      8.43344     12.41350      4.08606        -0.337350      0.468547     -0.171370
78   2      8.17751      2.04496      6.05412        -0.196875      0.068690     -0.107820
79   2     10.18657      0.10008      6.22110         1.182120      0.084023      0.216757
80   2     10.53664      2.22789      4.19148         0.051569     -0.886606     -0.068311
81   2      8.27647      0.00072      8.25902         0.054324     -0.081250      0.467718
82   2      8.43432      2.04084     10.44789        -0.343008      0.571509     -0.142572
83   2     10.29609     12.52058     10.33240         0.324744      0.168250     -0.201971
84   2     10.22362      2.29736      8.30894         0.652260     -0.636924     -0.391866
85   2      8.42757      4.06162      0.01182        -0.188842     -0.006168     -0.150081
86   2      8.29398      6.46803      2.12746        -0.253110     -0.545010      0.276282
87   2     10.47230      4.20145      2.25317        -0.076051     -0.658213     -0.730750
88   2     10.22081      6.13335      0.27327         1.224569      0.562761     -0.712004
89   2      8.21850      4.19286      3.98365        -0.296774      0.181892      0.318706
90   2      8.31359      6.37515      6.08821        -0.152921     -0.079158      0.319651
91   2     10.09382      4.18198      6.13144         1.023448      0.376450      0.086727
92   2     10.47254      6.26620      4.00200        -0.115800      0.621256      0.834685
93   2      8.26333      4.28680      8.16628         0.575718     -0.466349      1.006054
94   2      8.51053      6.36043     10.57518        -0.719776     -0.460465     -0.112025
95   2     10.58706      4.18720     10.34839        -0.533028      0.156017      0.821874
96   2     10.35373      6.34158      8.41728         0.210170     -0.593193     -1.108553
97   2      8.37971      8.52532      0.12096        -0.007475     -0.449985     -0.862873
98   2      8.33538     10.47780      2.09807         0.082147      0.231243      0.198072
99   2     10.43323      8.51079      2.09528         0.258473     -0.449214     -0.182526
100   2     10.40656     10.54301     12.47608         0.004494     -0.300893     -0.131236
101   2      8.46374      8.39892      4.20949        -0.457034      0.147788     -0.071608
102   2      8.35531     10.41545      6.34444        -0.039291     -0.387285     -0.129266
103   2     10.52198      8.43789      6.15098        -0.212617     -0.518555      1.028538
104   2     10.51458     10.39769      4.20209        -0.252504      0.999560     -0.151517
105   2      8.22150      8.30264      8.41924         0.172996      0.296494      0.242671
106   2      8.25214     10.49442     10.54397         0.067519     -0.325632     -0.746380
107   2     10.59579      8.11741     10.37310         0.070208      1.306476      0.705117
108   2     10.40108     10.34518      8.25601        -0.285655      0.027479     -0.022161
