ITEM: TIMESTEP
0
ITEM: NUMBER OF ATOMS
108
ITEM: BOX BOUNDS pp pp pp
0.0 12.5220000000000002 
0.0 12.5220000000000002
0.0 12.5220000000000002
ITEM: ATOMS id type x y z fx fy fz
1   2      0.04952      0.32537     12.50471        -0.267689     -0.756081     -0.075842
2   2      0.04405      2.16628      2.18682        -0.258313      0.088847     -0.028683
3   2      1.97459      0.09034      2.03123        -0.127924     -0.500954      0.137951
4   2      1.94388      2.35538     12.49140         0.126395     -0.130499      0.181169
5   2     12.40368      0.03731      4.12697         0.349507     -0.151829     -0.084609
6   2      0.17182      1.93908      6.24420        -0.436028      0.481336      0.186008
7   2      2.18942     12.37969      6.34135        -0.297481      1.010459     -0.310087
8   2      2.22752      2.08309      4.27364        -0.756472      0.225170     -0.139840
9   2     12.49755     12.45639      8.40223         0.130484      0.463002      0.050635
10   2     12.50626      2.16201     10.37969        -0.236814      0.089337     -0.283085
11   2      2.14348     12.28751     10.48971         0.302139      1.159138     -0.012611
12   2      2.06705      2.10732      8.36692        -0.065828     -0.230617     -0.043579
13   2     12.35657      4.44446      0.21112         0.770010     -0.919223     -0.468816
14   2     12.44748      6.31373      2.31101         0.454569     -0.429581      0.035043
15   2      2.14212      4.20329      2.10210         0.106532      0.372005      0.493854
16   2      2.04300      6.23920      0.06509        -0.210097      0.767453     -0.000914
17   2      0.23545      4.19839      4.17590        -0.849620     -0.151759      0.173662
18   2      0.09251      6.39989      6.12095        -0.663355     -0.754873     -0.436348
19   2      2.08028      4.30282      6.22783         0.087185     -0.465415      0.313458
20   2      2.20277      6.36610      4.26040         0.511698      0.014888     -0.661616
21   2     12.42895      4.38807      8.43315        -0.088108     -0.582041     -0.682958
22   2     12.51431      6.24216     10.59005         0.288862     -0.032055     -0.241232
23   2      1.99298      4.16740     10.29221         0.090692      0.377576      0.319235
24   2      2.10671      6.28426      8.24529        -0.104812     -0.147015     -0.088851
25   2     12.36404      8.15293      0.28577         0.766258      0.467679     -0.788117
26   2     12.42210     10.53738      1.97953         0.390512      0.023948     -0.054097
27   2      2.28230      8.30565      2.09744        -0.178351     -0.175848      0.134598
28   2      2.08845     10.21689      0.14532         0.140849      0.284675     -0.367744
29   2      0.02417      8.48816      3.96974        -0.145932     -0.163693      0.480276
30   2      0.15099     10.51049      6.16518        -0.918694     -0.251694     -0.281980
31   2      2.12149      8.36929      6.24437        -0.195788      0.029360     -0.101258
32   2      2.10799     10.34146      4.05572         0.024824      0.702311     -0.220062
33   2     12.41949      8.11867      8.20675         0.563451      0.824345      0.778870
34   2      0.17603     10.50564     10.60798        -0.904748     -0.903219     -0.064318
35   2      2.16133      8.19590     10.28357        -0.786994      0.827142      0.501939
36   2      1.92386     10.35773      8.26615         0.382780     -0.278321      0.783348
37   2      4.03796      0.04419      0.11729         0.210536     -0.434055     -0.414187
38   2      4.04865      2.04215      2.16226        -0.088193      0.664828     -0.539303
39   2      6.37608     12.30981      2.06221        -0.410466      0.581870      0.229279
40   2      6.04028      2.06330      0.24897         0.317336     -0.257920     -1.026769
41   2      4.05782      0.01578      3.96996         0.472530     -1.008912      0.752122
42   2      4.07560      2.08575      6.30475         0.209192     -0.220451      0.267522
43   2      6.21261      0.14210      6.32717        -0.030026     -0.486619     -0.643792
44   2      6.04593      2.06410      4.14851         0.960794     -0.268141      0.131920
45   2      4.18355     12.52034      8.40763        -0.493437     -0.133074     -0.141544
46   2      3.98640      2.18420     10.60629         0.608326     -0.294635     -0.388304
47   2      6.08289     12.46148     10.39894         0.473956     -0.288836      0.957320
48   2      6.27598      1.90587      8.48049        -0.875028      1.072931     -0.428206
49   2      4.02588      4.40940      0.04092         0.546307     -0.856694     -0.203195
50   2      4.34554      6.45372      2.09231        -0.376573     -0.295443      0.369587
51   2      6.11022      4.12164      2.06854         0.346904     -0.099156      0.586228
52   2      6.35633      6.06452      0.06739        -0.369256      0.924877     -0.715747
53   2      4.34950      4.28536      4.24495        -0.890847      0.188568     -0.407288
54   2      4.40134      6.25768      6.30714        -0.928845      0.489445     -0.720604
55   2      6.15539      4.05912      6.33153         0.776769     -0.280740     -0.314787
56   2      6.30504      6.40260      4.20373         0.011212     -0.380784     -0.011341
57   2      4.15628      4.20567      8.21619        -0.167892     -0.553264      0.994477
58   2      4.01077      6.20323     10.35520         0.638424     -0.273172      0.294351
59   2      6.24411      4.15329     10.58846        -0.740573     -0.330001     -0.748284
60   2      6.04945      6.36509      8.43022         0.903310     -0.393984      0.109512
61   2      4.33023      8.28989     12.37021        -0.373043      0.085716      0.516572
62   2      4.34505     10.38450      2.06284        -0.188212     -0.179826     -0.033007
63   2      6.42247      8.35974      2.09796        -0.514009      0.353788     -0.448334
64   2      6.46464     10.38646     12.49706        -0.350342      0.248550     -0.423873
65   2      4.33853      8.59543      4.48578        -0.003731     -1.624652     -1.581465
66   2      4.13463     10.51613      6.18701         0.563625      1.040800      0.988735
67   2      6.47744      8.34385      6.41270         0.137760     -0.334156     -0.424824
68   2      6.47109     10.38727      4.39288        -0.368182      0.742495     -0.461064
69   2      4.14141      8.44454      8.20602         0.174035      0.141920      0.362484
70   2      4.12667     10.35756     10.38311         0.385180     -0.202347      0.153385
71   2      6.29495      8.21219     10.46543         0.019998      0.601344     -0.197065
72   2      6.30535     10.38875      8.22947        -0.337002      0.391628      0.744319
73   2      8.36600      0.22631     12.31922        -0.278099     -0.549834     -0.119657
74   2      8.25555      1.93410      2.08849         0.046301      0.365276      0.293503
75   2     10.40416     12.50612      1.85891         0.064771      0.353169      0.140706
76   2     10.40411      2.30517     12.50622         0.450916     -0.844504     -0.212269
77   2      8.41016      0.00621      4.26501        -0.218000      0.119753     -0.002315
78   2      8.35799      2.07513      6.41224        -0.404346     -0.202313     -0.655425
79   2     10.48226      0.05142      6.35551         0.121487      0.065243     -0.147152
80   2     10.40344      2.04511      4.14306         0.584624     -0.336820      0.038757
81   2      8.33949     12.43470      8.37627         0.286879     -0.047273      0.561500
82   2      8.26764      2.15679     10.23504         0.245812     -0.215624      0.967884
83   2     10.52237      0.06566     10.47354        -0.263011     -0.217569     -0.067315
84   2     10.27113      2.22777      8.36738         1.231252     -0.188027     -0.098802
85   2      8.29080      4.00248     12.44941        -0.135857      0.212931      0.375984
86   2      8.17460      6.05543      2.07203         0.662138     -0.048877      0.640831
87   2     10.39331      4.11336      2.10069        -0.342053      0.024440      0.815783
88   2     10.26723      6.17971      0.14301        -0.422180      0.193373     -0.753777
89   2      8.47957      3.94529      4.25959        -1.256852      0.411367     -0.662683
90   2      8.30287      6.05805      6.18576        -0.143925      0.960222     -0.430648
91   2     10.45200      4.13906      6.15394         1.032887     -0.033172      0.383019
92   2     10.32761      6.28541      4.12655         0.091734     -0.157502      0.354205
93   2      8.17360      4.28538      8.21450         0.008656     -0.590285      0.665997
94   2      8.25722      6.21182     10.19184         0.366895      0.339227      0.656056
95   2     10.32511      4.24685     10.40946         0.235489      0.189104     -0.045706
96   2     10.33085      6.23300      8.14980        -0.006912      0.060111      0.178199
97   2      8.35595      8.27077     12.45213        -0.120365     -0.411632     -0.130718
98   2      8.44283     10.53164      2.09029         0.111084     -0.285612     -0.206982
99   2     10.20553      8.26133      2.03783         0.395118      0.256738      0.322933
100   2     10.47555     10.22631     12.43731         0.039304      0.653216     -0.045034
101   2      8.34819      8.36293      4.03659         0.444633     -0.121814      1.132758
102   2      8.47106     10.52737      6.34458         0.200288     -0.154423     -0.501674
103   2     10.52556      8.42096      6.18563        -0.376097     -0.074126     -0.492223
104   2     10.48833     10.43243      4.10637        -0.225924      0.120109      0.245070
105   2      8.52231      8.51836      8.34777        -0.283685     -1.217352     -0.332003
106   2      8.53352     10.21686     10.42026        -0.398676      1.176025      0.346034
107   2     10.63969      8.17421     10.36905        -0.505718      0.406324      0.244499
108   2     10.55207     10.40612      8.34974         0.517192      0.274276      0.222435
