ITEM: TIMESTEP
0
ITEM: NUMBER OF ATOMS
108
ITEM: BOX BOUNDS pp pp pp
0.0 12.5220000000000002 
0.0 12.5220000000000002
0.0 12.5220000000000002
ITEM: ATOMS id type x y z fx fy fz
1   2      0.16950      0.18069     12.48659        -0.606731     -0.640451      0.112479
2   2      0.07991      2.11966      2.10956        -0.250540     -0.196275     -0.093752
3   2      2.24751      0.02503      2.05064        -0.887447     -0.241151      0.282695
4   2      2.12868      2.17893      0.05745        -0.170983      0.310936     -0.164671
5   2     12.34106     12.50478      4.07994         0.594232      0.998274     -0.419484
6   2      0.21268      1.98581      6.22654        -0.540525     -0.595292      0.104882
7   2      2.21662     12.49632      6.21021        -0.445491     -0.113906      0.465367
8   2      2.15706      2.16224      4.11270        -0.002629     -0.109275     -0.070140
9   2      0.08903     12.32458      8.35988        -0.007953      0.430820      0.199511
10   2     12.43632      2.08313     10.40041         0.127999      0.148013      0.112435
11   2      2.02355      0.05694     10.34149         0.247249     -0.178959      0.340934
12   2      2.00995      2.16509      8.39981         0.478648     -0.050842      0.116134
13   2     12.36119      4.31789     12.41822         0.151412     -0.296954      0.710400
14   2     12.16009      6.41449      2.01489         0.780225     -0.213462      0.937581
15   2      2.08276      4.29879      1.94768         0.066103     -0.512832      0.264922
16   2      1.99712      6.44390      0.28299         0.122017     -0.154925     -0.747212
17   2      0.04276      4.02739      4.19180        -0.212523      0.111556     -0.388920
18   2      0.11574      6.35057      6.20514        -0.202535     -0.053545      0.297122
19   2      2.00181      4.20306      6.25907         0.848427      0.175669      0.092836
20   2      1.78738      6.16430      3.98114         0.775353      0.637460     -0.095724
21   2      0.07656      4.27030      8.34379         0.292766      0.080609      0.730915
22   2     12.40395      6.39263     10.42466         0.908376     -0.000303      0.411836
23   2      1.89660      4.35274     10.61779         0.834869     -0.045630     -0.359129
24   2      2.11512      6.48932      8.31745        -0.352841     -0.564182      0.326056
25   2     12.40345      8.38325      0.04548         0.114560     -0.619628      0.179732
26   2     12.43592     10.44719      1.89279         0.034464      0.739440      0.407214
27   2      1.92479      8.52825      2.13860         0.578404     -0.301822      0.234081
28   2      2.14679     10.50498     12.47969        -0.806673     -0.161183      0.307559
29   2     12.46254      8.53980      4.17701        -0.069205     -0.180683     -0.158156
30   2     12.24874     10.73278      6.15033         2.454471     -1.936723      0.005269
31   2      2.12419      8.34983      6.07165         0.104214      0.445870      0.041031
32   2      2.05975     10.58901      4.10131        -0.141664     -0.177480      0.336148
33   2     12.38316      8.43590      8.18796         2.282047      0.431002      0.768349
34   2     12.42891     10.11355     10.54114         0.694777      1.627231     -0.619730
35   2      2.11580      8.35762     10.50065        -0.475012     -0.610439      0.112984
36   2      2.15922     10.33364      8.48882        -0.492050      0.327304     -0.916237
37   2      4.22607     12.29453      0.09363         0.404466      0.701074     -0.678425
38   2      4.14805      2.01201      2.06619         0.416413      0.571876      0.217622
39   2      6.32849     12.43017      2.02033        -0.145106      0.233692      0.483837
40   2      6.25802      2.03973      0.19673         0.256300     -0.088812     -0.989012
41   2      4.23994      0.18236      4.25355         0.295713     -0.457570     -0.553432
42   2      4.17261      2.10724      6.22773        -0.360610      0.100366      0.416476
43   2      6.43323      0.04868      6.11975        -0.608772      0.199830      0.502665
44   2      6.46922      2.11185      3.96184        -0.716588     -0.019249      0.454525
45   2      4.19645      0.03932      8.38357        -0.665337     -0.488312     -0.328490
46   2      4.09419      1.99536     10.68897         0.478846      0.294989     -0.505333
47   2      6.20935     12.34024     10.25634        -0.511839     -0.083119      0.949044
48   2      6.07579      2.00528      8.36395         0.384430      0.706786      0.002606
49   2      4.48800      4.19315      0.15540        -0.856231      0.292996     -0.602755
50   2      4.36398      6.19833      2.14486        -0.187600      0.703909     -0.029971
51   2      6.37380      4.20635      2.16680         0.587651      0.276753     -0.146675
52   2      6.51711      6.42480     12.35608        -0.981266     -0.825654      0.570365
53   2      4.22471      4.24315      4.17506        -0.775148     -0.153480     -0.315729
54   2      4.18869      6.24738      6.36402        -0.508141     -0.358067     -0.328096
55   2      6.07403      4.06233      6.16681         0.768628     -0.199011      0.924828
56   2      6.34035      6.21255      4.38561         0.165091      0.109131     -1.003701
57   2      4.05269      4.24438      8.50141        -0.192903     -0.251147      0.134072
58   2      4.14110      6.40313     10.66375         0.016780     -0.617117     -0.323403
59   2      6.24524      4.18640     10.45040        -0.267656     -0.598198      0.364617
60   2      6.22091      6.13369      8.51205        -0.515697      0.184473     -0.767808
61   2      4.12720      8.33909      0.14527        -0.039872     -0.314501      0.432684
62   2      4.27919     10.44095      2.28728        -0.351912      0.108637     -0.354490
63   2      6.52765      8.39025      2.42350         0.075909     -0.815471     -0.552216
64   2      6.12555     10.16612      0.15275         0.661311      0.090804     -0.545719
65   2      4.20861      8.40710      4.08208        -0.519699     -0.744342      0.243004
66   2      4.27696     10.52868      6.14843        -0.508000     -0.112773      0.182382
67   2      6.09940      8.24073      6.16089         0.630763      0.477333      0.088136
68   2      6.38726     10.45914      4.20840         0.112350      0.182431      0.116611
69   2      4.15034      8.36258      8.27609         0.155095      0.060429      0.200048
70   2      4.06395     10.32824     10.49441         1.104120      0.367437     -0.177720
71   2      6.35620      8.40069     10.23259        -0.898473     -0.331260      0.606099
72   2      6.24891     10.26644      8.13068        -0.159717      0.765657      0.006465
73   2      8.12004     12.22933     12.33758         0.374385      0.526221     -0.326642
74   2      8.44280      2.04948      1.89764        -0.181428      0.263352      0.133330
75   2     10.32511     12.48020      2.00025         0.744963      0.608518     -0.519481
76   2     10.47257      2.06532      0.04159         0.165461     -0.177138     -0.567864
77   2      8.39593      0.16478      4.11903         0.191979     -0.350794      0.002718
78   2      8.40833      2.09868      6.36030        -0.208613      0.011023      0.244381
79   2     10.41357     12.42481      6.45245        -1.274230      2.327296      0.137997
80   2     10.26607      2.24837      4.26267         1.118702     -1.074795     -0.175656
81   2      8.19827     12.46892      8.41357         0.443084      0.217127     -0.767266
82   2      8.27021      1.96778     10.45337        -0.063496     -0.042251      0.455729
83   2     10.39283     12.42852     10.27923         0.220911      0.187523      0.928775
84   2     10.43218      2.02228      8.43398         0.126694      0.079663     -0.335160
85   2      8.50327      4.21991     12.26785        -0.864906     -0.539149      0.700010
86   2      8.49379      6.20954      2.13997        -0.895410     -0.066300      0.523418
87   2     10.43441      4.09400      2.16340         0.146266      0.131281     -0.368895
88   2     10.27786      6.27629      0.10577         0.341682      0.210330     -1.076704
89   2      8.40189      4.17126      4.30410        -0.525258      0.343892     -0.261373
90   2      8.27298      5.91357      6.47333         0.507055      0.449540     -0.046275
91   2     10.77444      4.02764      6.40477        -1.050976      0.215023      0.102653
92   2     10.53025      6.02469      4.40632        -0.009524      0.331402     -0.279242
93   2      8.28412      3.98916      8.46463         0.024439     -0.121527     -0.285633
94   2      8.43046      6.28863     10.16439        -0.048629     -0.063252      0.571451
95   2     10.43748      4.25732     10.34553         0.353609     -0.382740     -0.365092
96   2     10.57792      6.44314      8.39665        -0.817458     -1.238833     -1.235409
97   2      8.35876      8.29545     12.36030         0.169368      0.962548      0.407274
98   2      8.38609     10.51252      2.04851        -0.733819     -0.256729     -0.017340
99   2     10.18262      8.48216      2.11656         0.811403     -0.305398     -0.199929
100   2     10.35461     10.41335     12.44743        -0.107107      0.399108     -0.211487
101   2      8.75318      8.15822      4.43290        -1.457928     -0.070561     -0.171366
102   2      8.43809     10.55678      6.12359        -0.388669     -0.760817      0.455047
103   2     10.59651      8.47196      6.30688        -0.846494     -0.349559     -0.583248
104   2     10.33886     10.60581      4.06570         0.105983     -0.719016      0.061713
105   2      8.21863      8.24861      8.03283         0.518952     -0.008792     -0.178299
106   2      8.32110     10.25126     10.16324        -0.421765      0.569291      1.093545
107   2     10.38660      8.32839     10.37792        -0.402354     -0.297884      0.658961
108   2     10.36075     10.32709      8.46928         0.364011      0.513641     -1.063070
