ITEM: TIMESTEP
0
ITEM: NUMBER OF ATOMS
108
ITEM: BOX BOUNDS pp pp pp
0.0 12.5220000000000002 
0.0 12.5220000000000002
0.0 12.5220000000000002
ITEM: ATOMS id type x y z fx fy fz
1   2     12.40245      0.04686     12.17178         0.153563      0.380107      1.028815
2   2     12.40538      1.98630      1.90725         1.024491      0.285187      0.492339
3   2      2.07702     12.39337      1.99356        -0.378831      0.218264     -0.140666
4   2      2.09863      1.99945     12.42900        -0.395007     -0.234312     -0.204382
5   2      0.12569      0.22025      3.95905         0.399263     -0.681265      0.120541
6   2      0.01378      1.91601      6.13650         0.151064      0.640762      0.372516
7   2      2.07736      0.01930      6.23023         0.232640      0.402121      0.104283
8   2      2.17085      2.20428      4.02979        -0.107145     -0.617445     -0.301588
9   2      0.10691      0.16083      8.43822        -0.499580     -0.281181     -0.638392
10   2     12.43309      2.28984     10.40552         1.382560     -0.670633      1.007010
11   2      2.09949     12.37111     10.26632         0.655236      0.922197      0.937865
12   2      2.01996      2.32436      8.35213        -0.165225     -1.139164     -0.504812
13   2      0.04791      3.96152      0.09241        -0.706190      1.024482     -1.275233
14   2      0.06018      6.20919      2.25388        -0.577548      1.271678     -0.953060
15   2      1.89486      4.40162      1.86322         2.146993     -1.236505      1.186819
16   2      2.27018      6.31918     12.48612        -0.201777      0.009045     -0.547318
17   2      0.07099      4.07610      4.12409        -0.236530     -0.362099      0.511964
18   2      0.00197      6.32560      6.33104        -0.442161     -0.077415     -0.568559
19   2      2.36948      3.99539      6.00503        -0.967178      0.560533      0.621646
20   2      1.96348      6.26534      4.26137         0.467424      0.150731      0.065226
21   2     12.35813      4.16050      8.30520         0.323981      0.448248     -0.265156
22   2      0.00603      6.23238     10.44968         0.619261     -0.193461     -0.153689
23   2      2.14482      4.25296     10.28548        -0.575008     -0.266632      1.090571
24   2      2.02581      5.90782      8.13002         0.058439      0.714350      0.475407
25   2      0.09825      8.18027      0.06256        -0.231688     -0.094517     -0.234032
26   2     12.50178     10.33618      1.97863         0.135253      0.673606      0.446170
27   2      2.14029      8.33967      2.01686        -0.173053      0.139018      0.364555
28   2      1.92807     10.41061     12.42849         0.713103     -0.109802      0.167123
29   2     12.48326      8.49502      4.30050         0.992112     -0.681935     -0.737074
30   2     12.41671     10.55760      6.08390         1.364544      0.496923      2.092761
31   2      2.13643      8.27204      6.55117        -0.816431      0.218463     -0.181687
32   2      2.03073     10.52489      4.30318        -0.242472     -0.216214     -0.890462
33   2     12.32860      8.41521      8.39479         0.670934      0.606601     -0.114900
34   2      0.04699     10.53942     10.38861        -0.681748     -1.174607     -0.630958
35   2      2.27262      8.20255     10.34054        -0.339844      0.169918     -0.274378
36   2      2.14597     10.49857      8.33288        -0.463184     -0.960025     -0.277410
37   2      4.24094      0.01132      0.12835        -0.183916     -0.940755     -0.201924
38   2      3.99172      1.99996      2.02785         0.580361      0.897098      0.016227
39   2      6.36798     12.26482      2.18132         0.147349      0.157935     -0.993702
40   2      6.27058      1.99496      0.19798        -0.444420      0.603293     -0.083232
41   2      4.39240      0.07210      4.05646        -0.859869      0.183014      0.803336
42   2      4.35443      2.09699      6.14025         0.154119     -0.775829      0.283975
43   2      6.06098     12.08461      6.37556         0.711732      1.302239     -0.723031
44   2      6.22267      2.21762      4.04367         0.135215     -0.019197      0.267555
45   2      4.18290     12.46244      8.21473        -0.567048      0.319470      0.567762
46   2      4.11809      1.78312     10.42306        -0.476117      0.423607     -0.036759
47   2      6.20044     12.45315     10.60915         0.122363     -0.561964      0.199416
48   2      6.28649      1.92913      8.60000        -2.047073      1.960138     -1.376642
49   2      4.05524      4.03406     12.39572         0.148985     -0.047924      0.623856
50   2      4.21838      6.32641      2.18986        -0.213906     -0.029416      0.137820
51   2      6.33342      4.26797      2.05980        -0.617901     -0.241919      0.054725
52   2      5.93934      6.20566      0.04564         0.978676     -0.205123     -0.364762
53   2      4.35685      4.32696      4.10168        -0.382978     -0.223094     -0.430795
54   2      4.07886      6.30883      6.30508         0.773195     -0.112410     -0.008390
55   2      6.25789      4.30640      6.23119         0.399845     -0.479636      0.703148
56   2      6.30778      6.40261      4.48213        -0.525405     -0.075699     -1.318034
57   2      4.17475      3.98543      8.27315         0.908429      0.316049     -0.158491
58   2      4.23718      6.07733     10.26998         0.089601      0.545697     -0.072711
59   2      6.05437      3.82783     10.43783         0.140977      1.355505      0.470052
60   2      6.35597      6.28263      8.36285        -0.892488     -0.241297     -1.286350
61   2      4.28466      8.35462      0.00934        -0.822122      0.207782      0.108971
62   2      4.04972     10.45847      2.28633         0.196433     -0.475771     -0.728880
63   2      6.34053      8.44104      2.11604        -0.694500     -1.027916      0.264449
64   2      6.31430     10.19744      0.13508         0.077786      1.494232     -0.632880
65   2      4.00081      8.30381      4.20955         0.277688     -0.068036     -0.000310
66   2      3.98944     10.29322      6.18957         0.523243      0.018578      0.338720
67   2      6.57352      8.41549      6.27847        -0.867719      0.639307      0.552030
68   2      6.17281     10.33856      4.21067         0.274579     -0.258751      0.117782
69   2      4.42921      8.34926      8.32102        -0.345446      0.009203      0.153519
70   2      4.19621     10.37468     10.54406        -0.116396      0.125755     -0.087123
71   2      6.36708      8.39717     10.47179        -0.479087     -0.180434     -0.203315
72   2      6.33592     10.43768      8.53124         0.259520     -0.387561      0.047692
73   2      8.23254      0.11561     12.51026         0.657092     -0.642114      0.293993
74   2      8.25679      2.16672      2.19692         0.244491     -0.103780     -0.007258
75   2     10.42088      0.15544      1.92454        -0.535658     -1.460313     -0.078960
76   2     10.24766      2.35762      0.24680        -0.114889     -0.533484     -0.739093
77   2      8.14579      0.06583      4.21399         0.162033     -0.153376      0.287565
78   2      8.14560      2.10384      6.27977        -0.196343      0.193511      0.047514
79   2     10.27326      0.20035      6.59366         0.122887      0.265667      0.006585
80   2     10.35245      1.83551      4.16822        -0.049234      0.678517      0.257117
81   2      8.05310      0.24150      8.50050         2.715735     -2.268419     -0.194781
82   2      8.38378      2.38728     10.57739        -0.692127     -1.552826     -0.381465
83   2     10.22938      0.03309     10.46739        -0.090571      0.111502      0.215569
84   2     10.53033      2.11561      8.62457        -1.409165     -0.347081     -1.360366
85   2      8.24014      4.35374     12.48586        -0.430798      0.192137      0.596397
86   2      8.24495      6.25073      2.13160         0.347365      0.576603     -0.347558
87   2     10.36548      4.29573      2.26582         0.317431     -0.868768     -1.187719
88   2     10.51385      6.03410     12.40411        -0.040627      0.760077      1.083472
89   2      8.49747      4.29924      4.23953        -0.860178     -0.646409      0.443975
90   2      8.61270      6.49240      6.00292         0.465378     -0.792777      0.892297
91   2     10.45079      3.84428      6.27695         0.117216      0.464171     -0.313815
92   2     10.60474      6.17158      4.08035        -0.107346      1.066572      1.470502
93   2      8.49633      4.35798      8.24579        -0.333200     -0.278691     -0.151692
94   2      7.97174      6.17376     10.38354         1.330194     -0.238045      0.916442
95   2     10.35853      4.11264     10.54797         0.596522      1.269404     -0.643805
96   2     10.54346      6.34327      8.31205        -0.339753     -0.617917     -0.011889
97   2      8.44686      8.19623     12.40784        -0.163154     -0.674992      0.705201
98   2      8.58773     10.20664      1.94347        -0.160701      1.343534      0.168558
99   2     10.58544      8.35272      2.24686        -0.183466     -0.563000     -0.435925
100   2     10.50517     10.24252     12.47262         0.371340      0.731078      0.054785
101   2      8.31476      8.42145      3.99224         0.585301      0.084306      0.464642
102   2      8.40289     10.61653      6.29169        -0.238526     -0.182032      0.212581
103   2     10.39141      8.73608      5.94029        -0.496003     -0.933277      0.949500
104   2     10.53534     11.05328      4.37980        -1.266843     -0.136728     -1.852742
105   2      8.55340      8.20345      8.23286        -0.019724      0.823373      0.646358
106   2      8.42681     10.35889     10.55277        -0.152667      0.231095     -0.308715
107   2     10.50158      8.19786     10.57490        -0.035256      0.247315     -0.776047
108   2     10.35480     10.63319      8.44870         0.229280     -0.586024     -0.116779
