ITEM: TIMESTEP
0
ITEM: NUMBER OF ATOMS
108
ITEM: BOX BOUNDS pp pp pp
0.0 12.5220000000000002 
0.0 12.5220000000000002
0.0 12.5220000000000002
ITEM: ATOMS id type x y z fx fy fz
1   2      0.06502      0.01499     12.47094        -0.604296      0.205690     -0.180927
2   2      0.21430      2.23852      1.91505        -1.210405     -0.017112      0.451163
3   2      2.10458      0.10488      2.08503         0.210251      0.149027      1.042195
4   2      2.14020      1.90815     12.49751        -0.111762      1.396954     -0.985451
5   2      0.03778      0.27426      4.09848        -0.325520     -0.831034     -0.601058
6   2      0.08447      1.97586      6.19393        -0.643051      0.861813      0.342160
7   2      1.90513     12.34891      6.32345         0.442680      0.412916     -0.414099
8   2      2.15196      2.16634      4.33177         0.345381     -0.183978     -0.291442
9   2     12.24307     12.44254      8.13921         0.259730     -0.095604      0.933077
10   2     12.37885      2.23746     10.43571         0.654414     -0.727323      0.235191
11   2      2.07873     12.39854     10.35056        -0.963863      0.673846      0.160842
12   2      1.79699      2.14481      8.37603         0.442277     -0.552604     -0.224296
13   2     12.48440      4.33987     12.46398         0.114211     -0.897635      0.257263
14   2     12.46538      6.22048      1.97269        -0.323317      0.158872      0.960923
15   2      2.31474      4.00282      2.14397        -0.064724      0.722481      0.060949
16   2      2.07868      6.18717      0.18711         0.100125     -0.182370     -0.687421
17   2      0.07340      4.23719      4.13989         0.007721     -0.094241     -0.198385
18   2      0.32399      6.03174      6.33154        -0.702579      0.474892     -0.275856
19   2      2.39453      4.21803      6.39636        -0.700841      0.047620     -0.787878
20   2      2.35905      6.28266      4.11795        -0.307479     -1.011224     -0.009723
21   2     12.11552      3.99114      8.30569         2.177500      1.407249      0.484698
22   2      0.04586      6.19420     10.53400         0.082911      0.363143     -0.738573
23   2      2.10992      4.06438     10.33956         0.068584      0.629964      0.570199
24   2      1.98314      6.23895      8.48609         0.577667      0.211384      0.349607
25   2     12.50446      8.25013      0.03546        -0.049821      0.358593      0.268637
26   2      0.08370     10.55221      2.08996        -0.084158     -0.432068      0.543350
27   2      2.00929      8.29537      2.19947         0.153461      0.637599     -0.784133
28   2      2.16687     10.64133      0.23312        -0.022511     -0.935944     -0.568457
29   2      0.30898      8.16447      4.28487        -1.297602      0.066670     -0.698931
30   2     12.42175     10.21573      6.29518         0.175440      0.746717     -0.206294
31   2      2.05902      8.40468      6.26288        -0.238347     -0.807109      0.511399
32   2      2.22993     10.52586      4.07724        -0.860384      0.149562      0.400341
33   2     12.38897      8.37789      8.47575         0.420981     -0.610424     -0.257120
34   2      0.02711     10.33836     10.49254        -0.679661      0.842150      0.066986
35   2      2.11055      8.63750     10.69242        -0.924505     -1.342136     -0.431136
36   2      1.94184     10.34285      8.30136        -1.358495      0.177152      1.138566
37   2      4.11521      0.11713     12.44815         1.127617     -0.619829     -0.020691
38   2      4.28606      1.98505      2.01938         0.229192      0.090448     -0.081160
39   2      6.41220     12.45212      1.98621        -0.074115      0.444678     -0.264602
40   2      6.26885      2.12912     12.21726        -0.560004     -0.829113      1.041933
41   2      4.25191     12.46934      4.33215        -0.395404      0.445201      0.195680
42   2      4.13691      2.03781      6.39296        -0.026234     -0.734515     -0.145123
43   2      6.31914     12.46314      6.37772        -0.218421     -0.065605     -0.274133
44   2      6.31062      1.88056      3.98329         0.237591     -0.089885      0.668444
45   2      4.00690     12.29694      8.41071        -0.258907      1.156100     -1.660675
46   2      4.11408      2.14898     10.09368        -1.063993      0.679634      0.573168
47   2      5.87823      0.19441     10.20717         1.734539     -1.747735      1.159816
48   2      6.24589      2.02013      8.25218         0.622142      0.597515     -0.486494
49   2      4.20717      4.25624      0.03520         0.029667     -0.181054     -0.097930
50   2      4.20913      6.46204      2.02299         0.219289     -0.818388      0.775285
51   2      6.50668      4.01362      2.23674        -1.142908      0.116189     -0.437354
52   2      6.24570      6.46113      0.15045         0.265152     -0.809645     -0.679258
53   2      4.39541      3.97873      4.15673        -0.516325      0.493878     -0.034567
54   2      4.13657      6.61740      6.16469         0.723219     -0.646012      0.720714
55   2      6.37604      3.95238      6.10161        -0.671995      0.391223      0.245104
56   2      6.15759      6.26032      4.06408        -0.393577      0.085610      0.362415
57   2      4.35914      4.25809      8.17400        -0.525672     -0.166850      0.671447
58   2      4.24112      6.54590     10.59237        -0.271088     -1.490256     -0.691047
59   2      6.13317      4.21137     10.45562        -0.083850      0.378159     -0.565723
60   2      6.23529      6.07914      8.32695        -0.087337      1.681128     -0.213323
61   2      4.00506      8.31011      0.05285         0.441148      1.306392      0.770659
62   2      4.25291     10.50885      2.16211        -0.078677      0.143512     -0.471986
63   2      6.48525      8.41484      2.05014        -1.219205      0.216075      0.607780
64   2      6.08339     10.39052      0.09769         0.440109      0.583857     -0.645437
65   2      4.24880      8.59265      4.12355         0.512272     -0.536791      0.372512
66   2      3.91562     10.29021      6.55914         1.790345      0.528257     -1.838348
67   2      6.33938      8.38271      6.47460        -0.548199     -0.661448     -1.013079
68   2      6.29947     10.60901      4.15477         0.345299     -0.412886      0.466006
69   2      4.03147      8.39853      8.59157         0.342195     -1.149593     -0.766193
70   2      4.05739     10.44288     10.37934         1.110292      0.328604      1.260321
71   2      6.26888      8.52788     10.58920         0.480809     -0.168450     -0.330058
72   2      6.19602     10.30742      8.29269         0.413732      0.867392      0.848056
73   2      8.54102      0.10082      0.12124        -0.497580     -0.249244     -0.785979
74   2      8.60175      2.19484      1.93108        -0.250512     -0.753608      0.582248
75   2     10.42215     12.33633      2.13357         0.682662      1.241040      0.685723
76   2     10.48961      2.31166     12.38061        -0.215802     -0.602488      0.651268
77   2      8.41798      0.07185      4.30666        -0.479277     -0.267429     -0.822139
78   2      8.45615      2.17064      6.26653        -0.207530     -0.656441      0.715846
79   2     10.39380     12.37091      6.09290         0.660406      0.309257      0.329326
80   2     10.36251      2.19763      4.29360         1.073063     -0.401266     -0.828440
81   2      8.48562     12.43094      8.25624        -0.365158      0.161502     -0.201005
82   2      8.23771      1.76264     10.26650         0.314126      0.653852      0.410252
83   2     10.48200     12.44637     10.50353         0.174337     -0.014347     -0.169557
84   2     10.36079      2.10961      8.40071        -1.039948     -1.236943     -0.237164
85   2      8.02815      4.15313     12.46559         1.140555      0.636281     -0.304385
86   2      8.29122      6.11674      2.19129         0.161300      0.774040     -0.474700
87   2     10.35922      4.29457      2.03815         0.855806     -0.208315     -0.021232
88   2     10.22021      6.24728     12.37235         0.319833     -0.529919      0.631174
89   2      8.46052      4.16904      4.27578        -0.213689     -0.469152     -0.838104
90   2      8.20517      6.17992      6.02766         0.052877      0.982767      1.012191
91   2     10.52623      4.29896      6.24241        -0.437473      0.042475     -0.761860
92   2     10.31594      6.31469      4.13905         0.842778     -0.464615     -0.682977
93   2      8.30670      4.35952      8.22552         0.515263     -0.861809      0.162167
94   2      8.19861      6.29899     10.33817         0.021708      0.167733      0.460807
95   2     10.16859      4.18340     10.40153        -0.254440      0.352664     -0.118198
96   2     10.50102      6.32547      8.25816        -0.233132      0.206267     -0.004600
97   2      8.46311      8.31105      0.21160         0.194395      0.384094     -1.036044
98   2      8.45770     10.44180      2.09387        -0.645971      0.127636      0.187718
99   2     10.49576      8.48164      2.26796         0.441385     -1.107605     -0.731767
100   2     10.51505     10.43963      0.10442        -0.000879     -0.417627     -0.815231
101   2      8.14206      8.39365      4.19408         0.428011     -0.088730      0.286297
102   2      8.45096     10.30975      6.29740        -0.689161      0.128421     -0.411377
103   2     10.55691      8.25752      5.91204        -0.424478     -0.772648      1.860396
104   2     10.46402     10.26914      4.21073         0.262154      1.510798     -0.302861
105   2      8.37635      8.26671      8.33490         0.007862     -0.367884      0.297972
106   2      8.25013     10.60183     10.41103        -0.263847     -0.176107      0.582608
107   2     10.47188      8.25884     10.52894        -0.557750      0.471871     -0.222818
108   2     10.25462     10.27757      8.36348         0.939393      0.116192      0.455921
