ITEM: TIMESTEP
0
ITEM: NUMBER OF ATOMS
108
ITEM: BOX BOUNDS pp pp pp
0.0 12.5220000000000002 
0.0 12.5220000000000002
0.0 12.5220000000000002
ITEM: ATOMS id type x y z fx fy fz
1   2     12.44438      0.03888      0.04799         1.100060      0.001891     -0.861937
2   2      0.05130      1.91437      2.24962         0.206593      0.576085     -1.096071
3   2      2.08535     12.38003      1.90578        -0.546723      0.411913     -0.365200
4   2      1.96618      1.99685     12.48843         0.340229      0.209760      0.464188
5   2     12.43129     12.50039      4.12200         0.073292     -0.456156     -0.272677
6   2      0.11841      2.21495      6.28183         0.615872      0.053097      0.799210
7   2      1.96642     12.50733      6.02866         1.097370      0.799439      0.206213
8   2      2.01393      2.22771      4.12129         0.030987      0.217760      0.577899
9   2      0.09446      0.03663      8.19501         0.031606      0.055778     -0.420059
10   2      0.01933      2.03604     10.41647        -0.546277      0.623440     -0.265892
11   2      1.84848      0.04179     10.36771         0.814159     -0.584451      0.300644
12   2      2.40873      2.11674      8.55183        -1.808570      0.723382     -1.238693
13   2     12.46546      4.01234      0.09293        -0.893659      0.088644     -1.122924
14   2     12.40073      6.23643      2.03775         0.233036      0.296229      0.050450
15   2      1.81109      4.23526      1.93072         1.212531     -0.254078      1.323637
16   2      2.11026      6.29857      0.05986        -0.649320      0.160848     -0.471273
17   2      0.04435      4.48521      4.18217         0.510272     -0.214332      0.673211
18   2      0.07899      6.29081      6.61242         0.309470      0.041794     -0.647547
19   2      2.31841      4.13626      6.34989        -0.333035      0.473185      0.071660
20   2      2.30979      6.26537      4.37056        -0.570578     -0.857661     -0.550134
21   2      0.06992      4.13452      8.31764         0.153574     -0.341017      0.316565
22   2      0.21203      6.30664     10.38220        -0.881455     -0.254067      0.598819
23   2      2.00493      4.22367     10.50804         0.558912     -0.173840      0.114135
24   2      2.20524      6.33278      8.39172         0.399848     -0.697235     -0.506683
25   2     12.45607      8.49592     12.48747        -0.063504     -0.903872      0.347988
26   2     12.13477     10.38514      2.02062         0.520382     -0.128014      0.105847
27   2      1.96283      8.00239      2.32589        -0.161493      1.387037     -0.271695
28   2      1.90359     10.23941     12.38691         0.779571      0.669050      0.533440
29   2     12.23273      8.05660      4.47672         1.458643      0.446175     -0.499616
30   2      0.17390     10.52062      6.09748        -0.711419     -0.892360      0.599630
31   2      2.17293      8.47513      5.95462        -1.095798     -0.391136      0.059769
32   2      1.83210     10.53147      3.74549         0.621881     -1.308166      0.695949
33   2     12.22254      8.35829      8.55181         1.836430     -0.909074     -0.666897
34   2      0.11223     10.42312     10.20883        -0.149097      0.384868      0.301267
35   2      2.20742      8.26308     10.25699        -0.559279      1.036069      0.742309
36   2      2.14212     10.32094      7.95180         0.271362      0.108870      1.431369
37   2      4.19072     12.48457      0.12661         0.121330      0.159761     -0.836891
38   2      3.98404      1.90401      2.24576         0.429634      1.654679     -1.631079
39   2      6.40762     12.40748      2.01274        -0.644995     -0.116937      0.029763
40   2      6.13885      2.02597     12.49700         0.334419      0.499965      0.039262
41   2      4.13484      0.07680      4.02466         0.213110     -1.735805      1.196472
42   2      4.09409      2.00795      6.16295        -0.198223     -0.202635     -0.250808
43   2      6.16368      0.05750      6.27480        -0.193455     -0.670343     -0.306829
44   2      6.24397      2.01631      4.05798         0.200068     -0.046482      0.372213
45   2      3.99327     12.51904      8.24481         0.835804     -0.995652     -0.043559
46   2      4.03209      2.03906     10.60541         0.988224      0.226351      0.659892
47   2      6.18701      0.17363     10.35248         0.058545     -0.261074     -0.323338
48   2      6.06250      2.22294      8.20843         1.067642     -2.009952      1.193331
49   2      4.08851      4.06155      0.30774         0.197573     -0.250217     -0.460625
50   2      4.18676      6.43803      1.85495         0.727205     -0.249307      0.991700
51   2      6.29003      4.09927      2.28612         0.318556      0.128949     -0.712271
52   2      6.34424      5.97455      0.11693         0.596204      0.550474      0.617001
53   2      4.23511      4.18542      4.08798        -0.755125     -0.135623      0.029532
54   2      4.13874      6.59591      6.33326        -0.176009     -1.090333      1.055919
55   2      6.05192      4.06586      6.34319        -0.314679      0.909198     -0.985659
56   2      6.01295      6.29014      4.43848         1.152087     -0.555280     -0.950736
57   2      4.33150      4.14801      8.47386        -1.669420      1.453831      0.163339
58   2      4.20572      6.30874     10.71983        -0.700870     -1.226680     -0.675151
59   2      6.20581      4.40186     10.42423         0.527295     -1.695356      0.944864
60   2      6.42734      6.22399      8.52681        -0.633062      0.759831     -0.743617
61   2      4.23540      8.42556     12.40922        -0.243993      0.907791      0.815957
62   2      4.18686     10.43279      1.92317         0.045330     -0.659429      0.433779
63   2      6.46785      8.48929      2.45420         0.813401     -1.279777     -2.244948
64   2      6.33697     10.48484     12.37277        -1.074983      0.086891      0.092482
65   2      4.45772      8.47411      4.07414        -1.713837     -0.106476     -0.160299
66   2      4.05123     10.36271      5.89236         1.069927      1.487194      0.587112
67   2      6.28078      8.26271      6.48263         0.048308      1.100859     -0.151986
68   2      6.52330     10.48914      4.15900        -1.014395      1.298483      1.159540
69   2      4.32153      8.34070      8.53898        -0.031145      0.459276     -0.299355
70   2      3.93236     10.65679     10.46803         0.509218     -0.218007     -0.456708
71   2      6.26488      8.04772     10.61259         1.273193      0.954291      0.060246
72   2      6.42832     10.20903      8.55400        -1.515000      0.906568     -0.870801
73   2      8.40430     12.41358     12.40792        -1.318761      0.637804     -0.429359
74   2      8.31908      1.88741      1.88218        -0.116152      1.204380      0.438252
75   2     10.43610      0.12476      1.81311        -0.311895     -0.419443      1.891050
76   2     10.28779      1.91521     12.30395         0.684099      0.770005     -0.531160
77   2      8.47006      0.17328      3.99233         0.331994     -1.082366     -0.049172
78   2      8.48534      1.91356      5.97512        -0.479618      1.131990      0.978013
79   2     10.46017      0.06474      6.22040         0.415531     -0.661686      0.510311
80   2     10.82440      2.13213      4.36027        -1.585190      0.643401     -0.705572
81   2      8.20315      0.22817      8.16456         0.048408     -0.585059      0.580092
82   2      8.34722      2.27915     10.24078        -0.666621     -0.284203      0.190906
83   2     10.52002      0.00141      9.97946        -0.496262     -0.472190      0.673980
84   2     10.42564      2.14347      8.30523         0.137044      0.639466     -0.719783
85   2      8.46637      3.97019      0.10185        -0.247250      0.892571     -0.108976
86   2      8.28981      6.09811      2.31593        -0.616376      0.076955     -0.859383
87   2     10.62811      3.99192      2.23461        -1.116585      0.032907     -0.330254
88   2     10.54756      6.33199      0.03061        -0.595571     -0.573027     -0.544209
89   2      8.12796      4.24848      4.62303         0.179980     -0.289926     -1.729574
90   2      8.22951      6.28027      6.38808         0.429274      0.340623      0.001370
91   2     10.45650      4.43623      6.07582         0.275443     -0.680983      0.806459
92   2     10.25235      6.33370      4.08433        -0.097518     -0.967224      0.734750
93   2      8.19028      4.15319      8.12757         0.934732     -0.733164      0.323908
94   2      8.53084      6.20370     10.52306        -0.168124      0.189712      0.577444
95   2     10.52647      4.13811     10.43462         0.172285     -0.105988      0.548885
96   2     10.40396      6.01947      8.48596        -0.017554      0.481132     -0.274689
97   2      8.31445      8.70117      0.11311         0.538570     -1.201242     -0.137453
98   2      8.51642     10.43033      2.25589         0.856484      0.150751     -0.173810
99   2     10.38817      8.17441      2.11604        -0.509806      0.912074     -0.291378
100   2     10.45964     10.76595     12.27509         0.176142     -1.621421     -0.407412
101   2      8.42361      8.43047      4.56346        -0.021552     -0.645964     -0.964745
102   2      8.41254     10.55513      6.20311        -0.387930      0.768444      0.820055
103   2     10.39097      8.18899      6.55662         0.211966     -0.768714     -1.400880
104   2     10.61911     10.29481      4.41914        -0.936904      0.299290     -0.797352
105   2      8.43638      8.38437      8.37960        -0.299142     -0.593044      0.984160
106   2      8.26938     10.57600     10.34034         1.231026     -0.013018      0.237297
107   2     10.48186      8.43076     10.59641        -1.193429     -0.108037      0.120003
108   2     10.44926     10.28372      8.15315        -0.294496      2.196307      0.643581
