ITEM: TIMESTEP
0
ITEM: NUMBER OF ATOMS
108
ITEM: BOX BOUNDS pp pp pp
0.0 12.5220000000000002 
0.0 12.5220000000000002
0.0 12.5220000000000002
ITEM: ATOMS id type x y z fx fy fz
1   2     12.45873      0.11923     12.40432        -0.014544      0.171280      0.677289
2   2     12.43751      2.17751      1.98722         0.157187     -0.761773      0.718242
3   2      1.96488     12.49679      2.06837         0.565015     -0.240074     -0.534340
4   2      2.10414      1.94030      0.05246         0.204112      0.481718     -0.163219
5   2      0.19907     12.37228      4.08006        -1.346621      0.933960      0.279042
6   2      0.08305      2.11378      6.17286         0.106356      0.398129     -0.757413
7   2      1.99929      0.02333      6.11267         0.714996      0.218610     -0.008264
8   2      2.14965      2.21153      3.98027        -0.804188     -0.711321      0.522298
9   2      0.08209      0.05119      8.22963        -0.841008      0.150986      0.173284
10   2      0.01715      2.08570     10.30807         0.350671     -0.142079      0.373054
11   2      2.08365     12.50370     10.48507        -0.107597      0.177385     -0.043633
12   2      2.13615      2.06421      8.25194        -0.296914      0.271646     -0.038667
13   2     12.51499      4.11805      0.04857         0.257942      0.187233     -0.429363
14   2      0.06291      6.31560      2.14379        -0.420151     -0.215648     -0.554079
15   2      2.14798      4.28663      2.13789        -0.113613     -1.001485     -0.038890
16   2      2.05797      6.00931      0.12563        -0.033425      1.113198     -0.527278
17   2     12.43351      4.21323      4.13116        -0.024538     -0.435688      0.262897
18   2     12.39945      6.50590      6.18298         0.832372     -1.206163      0.770139
19   2      2.11646      4.17319      6.03695        -0.199895     -0.009145      0.934761
20   2      2.08001      6.15956      4.17519         0.176990      0.219218     -0.073835
21   2     12.47668      4.06491      8.33275         1.084467      0.398899     -0.288820
22   2      0.18261      6.22405     10.48548        -0.213512     -0.768921      0.606272
23   2      2.17755      3.99175     10.52164        -0.581801      0.032640      0.284491
24   2      2.15700      6.11476      8.44868        -0.502001     -0.184738     -0.647934
25   2     12.44075      8.31169      0.09460         0.003225     -0.052288      0.442602
26   2     12.36539     10.33439      2.24444         0.272549      0.041239     -0.733972
27   2      2.18158      8.24565      2.09298        -0.002282      0.411580     -0.716511
28   2      1.77114     10.44837      0.03843         0.846049      0.104210      0.592174
29   2     12.49245      8.24450      4.16040        -0.154339      0.632927     -0.321384
30   2     12.49666     10.38881      6.17985        -0.106442     -0.151164      0.406891
31   2      2.19167      8.11574      6.17903        -0.592348      0.015323     -0.059787
32   2      1.98434     10.20241      4.14299         0.596060      0.339151     -0.225301
33   2      0.42217      8.35003      8.36283        -1.025362      0.131643     -0.095368
34   2     12.49262     10.57094     10.41263        -0.052394     -0.485236     -0.883131
35   2      1.84945      8.32125     10.73531         1.352550      0.568060     -0.421383
36   2      1.94804     10.66501      8.26932         0.682172     -0.678689      0.375105
37   2      4.36566     12.38326     12.51975        -0.636341      1.310898      0.639811
38   2      4.09598      2.03080      2.06583         0.805070     -0.276956     -0.699072
39   2      6.36230     12.50556      2.29267        -0.265102      0.150547     -0.533974
40   2      6.24645      2.15766     12.37464        -0.342112     -0.623619      0.276479
41   2      4.08126     12.38855      4.06175        -0.302662      0.369310      0.234253
42   2      4.12466      2.14022      6.15031         0.423002     -0.157183      0.263918
43   2      5.99372     12.45998      6.22468         0.225463      0.338616      0.023176
44   2      6.40896      2.11522      4.23106        -0.442641     -0.127509      0.485210
45   2      4.10753      0.08501      8.30360         0.092123     -0.265609     -0.448816
46   2      4.13687      1.92550     10.39612         0.294114      0.331238      0.383632
47   2      6.17311     12.39063     10.29504         1.697736      0.885615      0.043709
48   2      6.50554      1.99517      8.31222        -1.176226      0.187886      0.376803
49   2      4.31683      4.25463      0.00183        -0.239097     -0.756235      0.133404
50   2      4.22864      6.25650      2.01782         0.188347      0.345963      0.149244
51   2      6.28423      4.15933      2.20146        -0.315565      0.006571     -0.745654
52   2      6.22972      6.32014     12.48388         0.133927      0.534204     -0.276754
53   2      4.33057      4.03122      4.04228        -0.301858      0.557199      0.738679
54   2      4.31846      6.03084      6.20351        -0.359008     -0.017442      0.488276
55   2      6.53836      4.20742      6.35363        -0.583201     -0.179287      0.116694
56   2      6.27832      6.24671      4.22083        -0.162596     -0.236989      0.021555
57   2      4.03048      4.12969      8.47616         0.579905     -0.112494     -1.074015
58   2      3.94420      6.35195     10.61141         0.826695      0.328632     -0.424758
59   2      6.07012      4.13484     10.25705         0.703031      0.141940      0.488303
60   2      6.19348      6.27444      8.45826        -0.340900      0.340882      0.196431
61   2      4.25659      8.68993     12.30611        -0.697228     -0.661419      1.034044
62   2      4.32439     10.48378      1.99147        -0.836457     -0.712882      0.562452
63   2      6.34555      8.27085      2.24918        -0.480241      0.653925     -0.462153
64   2      6.42368     10.55795      0.18939         0.537733     -0.598377     -0.223677
65   2      4.06100      8.21607      4.16730         0.976733      0.317698     -0.188485
66   2      3.89110     10.37961      6.24806         0.694731      0.045377     -0.106476
67   2      6.27070      8.14707      6.22665        -0.482978      0.673943      0.322373
68   2      6.13763     10.42609      4.27355         0.073486     -0.739667      0.069942
69   2      3.74994      8.40054      8.33929         1.115768      0.239802      0.996037
70   2      4.20601     10.68085     10.44651        -0.966973     -1.630502     -0.982678
71   2      6.34693      8.53180     10.63088         0.396853     -0.226147     -1.057214
72   2      6.11015     10.35151      8.16247        -0.334300     -0.255961      0.305415
73   2      8.35560     12.46779      0.04121         0.010109      0.270967     -0.272788
74   2      8.14719      2.11865      2.04149         0.849354     -0.237271     -0.013098
75   2     10.38078     12.46457      2.05328         0.289196      0.448856      0.397777
76   2     10.25464      2.08369      0.09263         0.090072     -0.170863     -0.026984
77   2      8.24211     12.48123      4.35391         0.537404      0.266063     -0.208949
78   2      8.37415      2.02138      6.39676         0.209597      0.655470     -0.795886
79   2     10.47501      0.25304      6.15833         0.346782     -1.370826     -0.495121
80   2     10.24835      2.19108      4.13425         0.304271      0.001926     -0.261663
81   2      8.29475     12.35084      8.18961         0.212724      0.322242      0.756259
82   2      8.35390      2.14632     10.46420         0.071201     -0.431227     -0.106019
83   2     10.48436      0.13022     10.39180        -0.558146      0.040425     -0.479394
84   2     10.60642      2.09013      8.12473        -0.894956      0.289023      1.022169
85   2      8.09363      4.24997      0.01782         0.871302      0.201187     -0.472548
86   2      8.19918      6.20885      2.11742         0.935819      0.308933     -0.514909
87   2     10.49072      4.20448      1.95720        -0.795840      0.407534      0.248068
88   2     10.35301      6.44645     12.42294        -0.095309     -1.219305      0.416476
89   2      8.35277      4.31432      4.18309         0.545291     -0.324184      0.327825
90   2      8.45758      6.34577      6.64290        -0.446716     -0.191871     -0.484290
91   2     10.42696      4.54483      6.30535         0.171600     -1.211468     -0.282956
92   2     10.45956      6.27228      4.02330        -0.559313      0.109391      0.001451
93   2      8.47732      4.18703      8.50210         0.170371     -0.169671      0.021291
94   2      8.46687      6.36885     10.29812        -0.546257     -0.079452      0.318966
95   2     10.54242      4.01090     10.63649        -0.563105      0.711309     -0.415335
96   2     10.81214      6.19506      8.61277        -0.983678      0.439089     -0.634905
97   2      8.41986      8.54253      0.07729        -0.594538     -0.132622     -0.419294
98   2      8.55167     10.36968      2.43451        -1.371796      0.530745     -1.008190
99   2     10.32960      8.37750      1.98023         0.590920     -0.643681      0.699073
100   2     10.59918     10.50988     12.40759        -0.613618     -0.064711      0.463252
101   2      8.36581      8.26084      4.27651         0.116539     -0.151593      0.181060
102   2      8.32893     10.44563      6.24318        -0.140769     -0.479866     -0.309027
103   2     10.38214      8.29516      6.35733         0.054596      0.521569      0.035483
104   2     10.43560     10.38270      4.30769         0.414022      0.294304      0.520030
105   2      8.25174      8.50267      8.30769         0.053878      0.055276      0.871801
106   2      8.55110     10.50647     10.36885        -0.379010     -0.021382      0.135808
107   2     10.55209      8.31231     10.41762         0.019065      0.824672     -0.572114
108   2     10.46702     10.45430      8.20071         0.409968      0.064423      0.374597
