ITEM: TIMESTEP
0
ITEM: NUMBER OF ATOMS
108
ITEM: BOX BOUNDS pp pp pp
0.0 12.5220000000000002 
0.0 12.5220000000000002
0.0 12.5220000000000002
ITEM: ATOMS id type x y z fx fy fz
1   2     12.47852     12.45294     12.50352         0.254341     -0.394252      0.341353
2   2     12.33748      2.18802      2.11730         0.339760     -0.222804     -0.018483
3   2      2.07681     12.44429      2.13724        -0.514573      0.126295      0.361561
4   2      1.87099      2.06480      0.20413         0.150789     -0.307826     -0.625662
5   2     12.45715      0.05050      4.23821         0.532404     -0.349545     -0.387974
6   2     12.32779      2.08643      6.20829         0.323766     -0.112232      0.482122
7   2      1.99416     12.40660      6.21615         0.022430      0.524118      0.354439
8   2      1.82629      2.22207      4.16318         0.791738     -0.505263     -0.441113
9   2     12.31109      0.04448      8.19066         1.044442      0.131130      0.175051
10   2      0.06840      2.12089     10.51854        -0.365834     -0.269558     -0.544525
11   2      1.96950      0.05680     10.30251         0.009885     -0.067161      0.239276
12   2      2.11799      2.08141      8.38306        -0.037808     -0.344580     -0.410907
13   2      0.08756      4.32666     12.40726        -1.073672     -0.111203      0.546769
14   2     12.36649      6.21323      1.99061         1.049828      1.268302      0.279806
15   2      2.02797      4.32523      1.94364         0.067855     -0.364171      0.863641
16   2      2.19704      6.27495     12.50039        -0.278784      0.136905     -0.297697
17   2     12.39303      4.24448      4.27711         0.135410      0.180424     -0.244729
18   2      0.16554      6.16667      6.40949        -0.529132      0.299042     -0.390685
19   2      2.10861      3.97657      6.26520         0.453332      0.244195      0.191522
20   2      2.01975      6.05883      4.25884         0.428068      0.310193     -0.406734
21   2      0.09473      4.08704      8.31168        -0.764007     -0.485956      0.458233
22   2     12.44655      6.34996     10.42261         0.242614     -0.419123      0.292430
23   2      2.04657      4.07001     10.60999         0.972093      0.097975     -0.772897
24   2      1.99593      6.02418      8.55522         1.168149      0.532535     -0.203307
25   2     12.51961      8.35801      0.00717        -0.308147      0.031547     -0.110712
26   2     12.48021     10.17346      2.20144         0.288701      0.820236     -0.538572
27   2      2.07447      8.22096      1.98928        -0.007027     -0.099968      0.872144
28   2      2.23916     10.35397      0.13395        -1.017609      0.546067     -0.433816
29   2      0.13553      8.21002      4.16429        -0.432912     -0.133981     -0.013487
30   2      0.03234     10.21288      6.43760         0.480597      0.818674     -0.607779
31   2      2.04986      8.24360      6.15423         0.891837      0.148805      0.594457
32   2      2.11748     10.49513      4.16196         0.088587     -0.386234     -0.043556
33   2      0.22018      8.25557      8.42720        -0.104404      0.084341     -0.182708
34   2      0.10260     10.32971     10.32230        -0.294772      0.551700      0.332815
35   2      2.19021      8.46332     10.66014         0.267053     -0.382538     -0.736085
36   2      2.19904     10.41741      8.28949         0.013601      0.132576      0.022348
37   2      4.02536      0.04506      0.08761         0.510104      0.343968     -0.583797
38   2      3.95346      2.11952      1.95840         0.356362      0.088902      0.726648
39   2      6.16154     12.48058      2.14119         0.062952      0.022925     -0.575579
40   2      6.29778      2.09389     12.49648        -0.236915     -0.535503      0.054639
41   2      4.16192      0.19533      4.34418        -0.624789      0.022270     -0.742649
42   2      4.37496      2.13171      6.41082        -0.406861      0.406332     -0.825658
43   2      6.33719      0.02408      6.04693         0.158476      0.578793      0.566981
44   2      6.12302      2.21111      3.78172         0.353290     -0.183928      0.783594
45   2      4.37883     12.48105      8.10767        -1.260254      0.939881      0.666179
46   2      4.22284      2.11016     10.27780        -0.112809     -0.543337      0.676285
47   2      6.38457      0.06759     10.44311        -0.744314      0.370324      0.270901
48   2      6.35780      2.10346      8.38430         0.584717      0.162650      0.017006
49   2      4.17996      4.18420     12.48918        -0.571470     -0.178145     -0.221857
50   2      4.24602      6.20417      2.14014        -1.036740      0.261390     -0.415174
51   2      6.13388      4.19304      1.86931         0.879628     -0.207824      0.480913
52   2      6.41498      6.27449      0.00310        -0.659265      0.120161     -0.751977
53   2      4.20879      4.21793      4.14936        -0.566480     -0.740171      0.261264
54   2      4.25751      6.05339      6.36416        -0.544922      0.579293      0.005508
55   2      6.44999      4.26237      6.27011        -0.413017     -0.448723      0.269948
56   2      6.09246      6.28045      4.08295         1.293255      0.011287      0.756736
57   2      4.31857      4.15686      8.37003        -0.291203      0.256079      0.204193
58   2      4.17545      6.32158     10.41688        -0.025520     -0.075760     -0.022992
59   2      6.17637      4.25185     10.61130         0.751185     -0.185154     -0.774884
60   2      6.40355      6.26250      8.48750        -0.052121     -0.150231     -0.128331
61   2      4.27771      8.21636      0.16842         0.132060      0.261795     -0.991640
62   2      4.17622     10.36412      2.01626         0.458438      0.090237      0.944251
63   2      6.28142      8.29347      2.04534         0.207904      0.669007      0.472243
64   2      6.25286     10.47601     12.47198        -0.072660     -0.235323     -0.003344
65   2      4.09914      8.26849      4.21512        -0.191826      0.367754     -0.139384
66   2      4.34235     10.50937      6.15757        -0.594301     -0.825026     -0.124917
67   2      6.12571      8.21122      6.30054         0.295775      0.148188      0.135809
68   2      6.27093     10.41286      4.05284        -0.239598     -0.206156      0.046310
69   2      4.10850      8.33738      8.33841        -0.408547     -0.202866     -0.367557
70   2      4.05754     10.76366     10.45141         0.382647     -0.514883      0.011547
71   2      6.09107      8.47167     10.27646         0.376890     -0.055791      0.920451
72   2      6.13693     10.55977      8.44008         0.726097     -0.832986     -0.381496
73   2      8.38313     12.41346      0.07771         0.026385      0.133177      0.137610
74   2      8.48020      2.02636      1.96197        -0.110571      0.195301      0.219143
75   2     10.53664     12.41531      2.19513        -0.287456     -0.047500     -0.417424
76   2     10.54804      2.16171     12.49104         0.005364     -0.276094      0.432365
77   2      8.26089      0.13200      4.12671         0.417364     -0.377929     -0.580291
78   2      8.39690      2.12837      6.11363        -0.248245      0.034339      0.571223
79   2     10.35222     12.37690      6.05590        -0.361408      0.406965      0.505258
80   2     10.37946      2.18535      4.13794        -0.269633     -0.037833     -0.160072
81   2      8.44424      0.13349      8.30853        -0.468212     -0.446524     -0.450917
82   2      8.48938      1.95833     10.55793        -0.528835      0.381081     -0.161037
83   2     10.54385      0.03123     10.45195        -0.001591     -0.505897      0.041163
84   2     10.37870      2.05640      8.40809         0.752368      0.358363     -0.355923
85   2      8.42984      4.06581     12.49610        -0.119618      0.416824      0.195748
86   2      8.22591      6.27246      2.02630         0.831457     -0.447365      0.921866
87   2     10.53237      4.38318      2.15783        -1.586640     -0.962463     -0.168052
88   2     10.35820      6.28589     12.44089         0.462229     -0.102275      0.475878
89   2      8.19467      4.18387      4.14309         0.468707      0.305192     -0.607542
90   2      8.42344      6.21178      6.39973        -0.185694      0.569403     -0.364420
91   2     10.45786      4.25244      6.31992        -0.240605     -0.221865     -0.149442
92   2     10.38856      6.42299      4.24826        -0.186633     -0.163876      0.080643
93   2      8.51152      4.06710      8.46318        -0.882760      0.457738     -0.088210
94   2      8.45190      6.36732     10.49559        -0.576867     -0.505721     -0.774367
95   2     10.44451      4.15061     10.44160         0.433393      0.307716     -0.126483
96   2     10.51688      6.30364      8.26392        -0.036285     -0.019186      0.378056
97   2      8.35347      8.30209     12.51296        -0.100366      1.034197     -0.321593
98   2      8.39288     10.37278      2.14383        -0.133991      0.321414     -0.076157
99   2     10.29023      8.34093      2.09425         0.322641     -0.244581      0.096350
100   2     10.39364     10.41543     12.39617         0.171039     -0.218281      0.099236
101   2      8.25750      8.40075      4.37969         0.184619     -0.381795     -0.323106
102   2      8.07908     10.43283      6.34263         0.592007     -0.088106      0.055177
103   2     10.48461      8.47901      6.31653        -0.540749     -0.782382     -0.017174
104   2     10.56823     10.35715      4.23216        -0.436646     -0.279421     -0.221150
105   2      8.37884      8.43508      8.39691        -0.181022     -0.047356     -0.256970
106   2      8.25114     10.58042     10.30038         0.718359     -0.656864      0.421582
107   2     10.47495      8.32301     10.30655        -0.075326      0.817376      0.254792
108   2     10.45232     10.55864      8.27441        -0.591548     -0.533861      0.517532
