ITEM: TIMESTEP
0
ITEM: NUMBER OF ATOMS
108
ITEM: BOX BOUNDS pp pp pp
0.0 12.5220000000000002 
0.0 12.5220000000000002
0.0 12.5220000000000002
ITEM: ATOMS id type x y z fx fy fz
1   2      0.03124      0.16305      0.18068         0.470537     -0.964050     -0.195991
2   2      0.00437      2.11517      2.14328         0.440277     -0.469899      0.787143
3   2      2.09627     12.28530      2.18176        -0.611161      0.474806     -0.037223
4   2      2.01863      2.39505      0.10421         0.852677     -1.266233     -0.234514
5   2     12.37987     12.36823      4.05036         0.050636      0.398858      0.135354
6   2      0.06690      1.90688      6.09780         0.326050      0.381669      0.367420
7   2      2.00068     12.32671      6.19392         0.544115      0.240195      0.219180
8   2      2.36306      1.98988      4.08662        -0.963372     -0.098549      0.385851
9   2      0.01353     12.35027      8.44041         0.316692      0.558506     -0.112752
10   2     12.50164      2.15509     10.56869        -0.085066     -0.281664     -0.737372
11   2      2.03804      0.20394     10.58789         0.299675     -0.449090      0.067644
12   2      2.08993      1.97211      8.34433        -0.223379      0.030523     -0.465325
13   2      0.03033      4.25705      0.19231        -0.371654      0.799140     -0.840314
14   2      0.00894      6.15491      2.18687         0.194585      0.796335     -0.193283
15   2      2.03679      4.11005      2.20562         0.728899      0.550559      0.180628
16   2      2.28164      6.21978     12.33268        -2.020808      0.238829      1.252091
17   2      0.04541      4.21442      4.25700        -0.109942     -0.881838      0.044107
18   2     12.43746      6.23831      6.12687        -0.042478     -0.043923      1.141591
19   2      2.05480      4.35364      6.24380        -0.097288     -0.745887      0.293075
20   2      2.02835      6.25839      4.21103         0.307469      0.456263     -0.422192
21   2     12.45613      4.07194      8.33707         0.336187     -0.120328     -0.547759
22   2     12.44456      6.30748     10.42865        -0.250533     -0.259728      0.378187
23   2      1.94762      4.01310     10.30068         0.623852      0.634505     -0.038730
24   2      1.88552      6.24226      8.43590         0.357379     -0.178197     -0.689381
25   2      0.11646      8.26128     12.46761        -0.371146      0.094904      0.530364
26   2     12.35819     10.21907      2.19340         0.203531      1.024373     -0.848785
27   2      2.00289      8.43351      2.20607         0.076354     -0.744400     -0.865097
28   2      2.16587     10.45853     12.43212        -0.177026      0.189819      0.265844
29   2     12.50109      8.41055      4.43208        -0.495389     -0.758713     -0.880125
30   2     12.36494     10.45743      6.31049         0.691172      0.030633      0.250773
31   2      2.02631      8.33511      6.29177         0.517426      0.183336      0.419433
32   2      1.85791     10.32842      4.16879         1.189574      0.791164      0.665425
33   2     12.50899      8.33114      8.25626        -0.384500     -0.042190      0.463127
34   2      0.24694     10.35669     10.40806        -1.464182      0.369113      0.682021
35   2      2.07375      8.32990     10.42538         0.469069     -0.237615     -0.047354
36   2      2.10462     10.28103      8.47608         0.926800      0.805948     -1.004105
37   2      4.07896      0.04651      0.27159         0.196827      0.045997     -1.262163
38   2      4.28874      2.01263      2.14238         0.085071      1.035522     -0.149552
39   2      6.33260     12.52033      2.08069         0.095945     -0.105065     -0.336610
40   2      6.22738      2.11915      0.00542        -0.174281     -0.146177      0.242794
41   2      4.32034     12.42235      4.05307        -0.179830     -0.139653      0.826662
42   2      4.09381      2.10450      6.23078        -0.084902     -0.636119     -0.490484
43   2      6.27609      0.30917      6.15390        -0.281643     -0.864582     -0.275818
44   2      6.46632      2.34908      4.04860        -1.475771     -0.911933      0.179893
45   2      4.23032      0.04544      8.53030        -0.824658     -0.407032     -0.768553
46   2      4.24168      2.05838     10.46881        -0.861727      0.173112      0.252846
47   2      6.34708      0.21786     10.48645         0.286096     -0.797846      0.150643
48   2      6.18190      1.99136      8.27680         0.625746      0.725586      0.109981
49   2      4.11808      4.28076     12.30946         0.560805     -1.011332      0.719991
50   2      4.07662      6.27410      2.00096         0.205165     -0.076373      0.339131
51   2      6.42914      4.27114      1.98362        -0.775039      0.213959      0.223965
52   2      6.14810      6.23869     12.46899         0.289535      0.442571     -0.281271
53   2      4.12595      4.34578      4.18057         0.491179     -0.350263     -0.109069
54   2      4.22521      6.50089      6.28626        -0.367030     -0.674850     -0.220022
55   2      6.27831      4.18004      6.19128         0.294084     -0.170045     -0.816570
56   2      6.21300      6.34930      4.22209         0.071633     -0.717497     -0.027558
57   2      4.17875      4.13026      7.98648        -0.281531      0.625043      1.440972
58   2      3.94321      6.21847     10.30845         1.642079      0.079272     -1.254563
59   2      6.10705      4.07988     10.28082         0.485015      0.687320     -0.272815
60   2      6.34211      6.13865      8.08762        -0.088248      0.651727      0.923744
61   2      4.05598      8.38294      0.02563         0.614766     -0.018967     -0.046313
62   2      4.23129     10.41000      2.05988         0.179836     -0.614912      0.416697
63   2      6.30056      8.26042      2.21504        -0.760994      0.405264     -0.605323
64   2      6.23113     10.34478      0.00896         0.122783      0.365843      0.396520
65   2      4.00347      8.34675      4.18294         0.532913      0.469630     -0.149659
66   2      4.32337     10.49084      6.30127        -0.717231      0.195151     -0.359173
67   2      6.36976      8.43083      6.14906        -0.729049     -0.298187      1.283071
68   2      6.44684     10.41355      4.22781        -1.511979      0.424068     -0.611964
69   2      4.22139      8.34238      8.31533        -0.227518      0.091049      0.063226
70   2      4.45841     10.55073     10.44690        -1.660123      0.621282      0.314494
71   2      6.14457      8.53081     10.29155         0.608373     -1.508771      0.519225
72   2      6.22303     10.56152      8.29692         0.622674      0.155816      0.018668
73   2      8.36299     12.40176     12.49726         0.064336      0.469119      0.090993
74   2      8.35251      2.09761      2.01185         0.431510     -0.330778     -0.625460
75   2     10.39273      0.07352      2.00659        -0.182922     -0.378713      0.152995
76   2     10.63527      2.23888     12.51174        -1.526993      0.023048      0.116237
77   2      8.30095     12.42820      4.05426         0.804373      0.565299      0.135592
78   2      8.42690      2.03880      6.08336         0.115751     -0.137039      0.886702
79   2     10.51011     12.47296      6.35857        -0.516845      0.731249     -0.550204
80   2     10.46332      2.05818      4.20959         0.324776     -0.819525      0.013412
81   2      8.51221      0.04603      8.46545        -0.714977      0.229386     -0.212406
82   2      8.48043      2.07564     10.36416        -0.050310      0.212012      0.514362
83   2     10.65772     12.42554     10.57456        -0.333010      0.083296     -0.122964
84   2     10.51016      2.03560      8.44923         0.226690      0.015730     -0.496215
85   2      8.18291      4.06503     12.34220         0.914622      0.724289     -0.186509
86   2      8.32394      6.37323      2.21197         0.356761     -0.395029     -0.474686
87   2     10.49680      4.03005      2.29988        -0.178642      0.838956     -1.083825
88   2     10.41566      6.24832      0.21205        -0.297614     -0.147919     -0.520734
89   2      8.46411      4.08517      4.09146        -0.048750      1.474810      0.527432
90   2      8.60915      6.38707      6.25804        -1.197910     -0.697102      0.005801
91   2     10.41654      4.11079      6.23275         0.221774     -0.219525      0.141554
92   2     10.41880      6.31720      4.17577        -0.039659     -0.366720     -0.042969
93   2      8.25213      4.05560      8.21005         0.281597     -0.076135      0.312612
94   2      8.21526      6.41417     10.37362        -0.066664     -0.968258      0.726375
95   2     10.39752      4.31731     10.30731        -0.392620     -0.494847      1.158424
96   2     10.42982      6.08675      8.30303         0.123606      0.911056     -0.012514
97   2      8.25041      8.39983     12.49602         0.365033     -0.664171     -0.011114
98   2      8.32320     10.31357      2.04871         0.443987      0.214582     -0.086959
99   2     10.55464      8.26597      2.24292        -0.766150     -0.108807     -0.693560
100   2     10.47842     10.39367     12.50549         0.252710     -0.309215      0.219599
101   2      8.29090      8.40050      4.30568         0.881554     -0.592390     -0.660926
102   2      8.19266     10.64402      6.34481         0.507045     -0.068536      0.193363
103   2     10.43224      8.39756      6.38738        -0.254110     -0.129062      0.146556
104   2     10.26846     10.27951      4.29950         0.144858      0.893702     -0.356513
105   2      8.29758      8.30439      8.47370        -0.036924      0.528756     -0.941526
106   2      8.34534     10.45860     10.44991        -0.026166      0.074672     -0.066308
107   2     10.39831      8.36298     10.38718         0.373165     -0.014487      0.242415
108   2     10.25770     10.46007      8.28079         0.532112     -0.537485      0.806975
