ITEM: TIMESTEP
0
ITEM: NUMBER OF ATOMS
108
ITEM: BOX BOUNDS pp pp pp
0.0 12.5220000000000002 
0.0 12.5220000000000002
0.0 12.5220000000000002
ITEM: ATOMS id type x y z fx fy fz
1   2      0.11109      0.14417     12.38376        -0.689270     -0.316008     -0.222315
2   2      0.08255      2.07720      1.91135        -0.018730      0.599402      0.777559
3   2      1.91484     12.48081      2.01987         0.798315      0.473187      0.446782
4   2      2.22060      2.11447     12.34386        -0.511041      0.291061      0.399955
5   2      0.06798     12.42336      4.10707        -0.484481     -0.024223      0.231217
6   2      0.11491      1.80846      6.44935        -0.488920      1.033969     -0.856363
7   2      1.96051     12.28849      6.37276         0.326470      0.690931      0.605705
8   2      2.00878      2.08593      4.26266        -0.220243      0.313388     -0.142228
9   2     12.35678     12.49342      8.42994         0.865976     -0.599019      0.436308
10   2     12.34835      2.12586     10.38021         0.549215      0.187884     -0.596131
11   2      2.18879      0.20909     10.30026        -0.221288     -0.102408     -0.163336
12   2      2.12806      2.22360      8.28572         0.092073      0.178255      0.227315
13   2      0.06929      4.16850     12.48041         0.019050      0.039768      0.219172
14   2      0.10973      6.31830      2.08902        -0.520731     -1.081066     -0.086218
15   2      2.18346      4.24370      2.26947        -0.518635     -0.347487     -0.123063
16   2      2.28436      6.13809      0.08883        -0.763636      0.480420     -0.461632
17   2     12.39178      4.06609      4.40422         0.438477     -0.647763     -1.137678
18   2     12.43379      6.17488      6.11589        -0.449998      0.227210      0.864525
19   2      2.18404      4.42329      6.19483        -0.048164     -1.005191      0.284103
20   2      2.01853      6.29980      4.20074         0.664873     -0.183313     -0.350020
21   2     12.44547      4.26572      8.35189         0.122893     -0.874182     -0.513130
22   2      0.12758      6.21666     10.36348        -1.020160     -0.617719      1.003321
23   2      2.07587      4.25253     10.40289         0.360297     -0.469380     -0.400219
24   2      1.94218      6.29682      8.28521         0.560869     -1.239466      0.226151
25   2      0.28268      8.22844      0.02640        -0.687355      0.390752      0.219714
26   2     12.47246     10.34590      2.03587        -0.056003      0.767618      0.015103
27   2      1.88737      8.39792      2.28861         1.705414      0.124887     -0.724932
28   2      1.97410     10.71487     12.41822         0.687972     -1.001824     -0.035670
29   2     12.51623      8.35346      4.22250        -0.627563      0.564484      0.565445
30   2      0.14565     10.27217      6.52837        -0.376111     -0.064393     -0.643980
31   2      1.94240      8.12656      6.31864         0.400711      1.092297     -0.600540
32   2      1.96653     10.41025      4.23747         0.392169     -0.127751      0.151274
33   2     12.43260      8.20160      8.52066        -0.453548      0.266018     -1.264368
34   2     12.49107     10.30769     10.49611        -0.435169      0.771318      0.564152
35   2      1.90321      8.26035     10.43112         1.540518     -0.228488      0.791891
36   2      2.00721     10.34741      8.74086         0.032294      1.145031     -1.638685
37   2      4.15985      0.14905     12.46373        -0.253400     -0.029466     -0.361260
38   2      4.12431      2.19291      2.15358         0.037381     -0.491256     -0.265291
39   2      6.05673     12.45548      1.83863         0.418797      0.823651      0.170444
40   2      6.30464      2.11554     12.45993         0.315184     -0.282474      0.235848
41   2      3.88552      0.03889      4.39457         0.504938      0.015850     -0.563791
42   2      4.17267      2.26350      6.27254         0.178088     -0.545606      0.037577
43   2      6.17537     12.40133      6.21116         0.183937      0.361464      0.777584
44   2      6.20681      1.84363      4.04878        -0.515009      0.567321     -0.089157
45   2      4.27283      0.15517      8.37452        -0.029837     -0.117949     -0.360126
46   2      4.42626      2.23841     10.31465        -0.649425     -0.259077      0.308790
47   2      6.33671     12.23082     10.35325        -0.139324      1.557535     -0.425004
48   2      6.45766      2.23955      8.52654         0.288454     -0.811507     -0.090939
49   2      4.09064      4.12172     12.46467         0.621374      0.011528      0.345460
50   2      4.08242      6.42951      2.09352         0.668700      0.124261      0.675138
51   2      6.26487      4.38136      1.93531         0.139048     -0.569552      1.085441
52   2      6.16889      6.31467      0.09423        -0.115928      1.217662     -0.027334
53   2      4.33622      4.11772      4.19557         0.388692      0.673205      0.035554
54   2      4.22509      6.38203      6.29900         0.074189     -0.598312     -0.346053
55   2      6.42994      4.19907      6.47152        -0.375663      0.353588     -1.199340
56   2      6.36769      6.46057      4.21745        -0.488251     -1.146131     -0.342042
57   2      4.35344      4.24766      8.27302        -0.545371      0.291256      0.456531
58   2      4.21087      6.27300     10.30875        -0.176185     -0.222952      0.253482
59   2      6.32768      4.37068     10.72273         0.170328     -0.461485     -1.109545
60   2      6.63639      6.17104      8.42028        -0.522628      0.088745      0.350848
61   2      4.00872      8.45746     12.40387         0.017351     -0.350282      0.526206
62   2      3.97306     10.52767      2.07592        -0.233549     -0.136102     -0.120349
63   2      6.08096      8.62104      2.26042        -0.108296     -0.590882     -1.273060
64   2      6.04135     10.46301     12.33006         0.593425     -0.893143      1.164957
65   2      4.19587      8.55850      4.21312        -0.398890     -0.209353      0.635617
66   2      4.00373     10.43807      6.43728         0.232354     -0.422977     -0.093870
67   2      6.22528      8.20072      6.36335         0.301425      0.855313      0.112695
68   2      6.22493     10.82341      4.01238        -0.470625     -0.864874      0.553052
69   2      3.83859      8.27149      8.39719         1.247833      0.441163     -0.265240
70   2      4.10449     10.42761     10.43845        -0.096890      0.172758     -0.289250
71   2      6.19251      8.26087     10.30042         0.150889      0.211303      0.445758
72   2      6.11796     10.21701      8.30146         0.435646      0.358940     -0.218530
73   2      8.40754     12.47282      0.10048        -0.333281      0.663204     -0.465443
74   2      8.43189      2.25161      2.16336        -0.324243      0.105833     -0.720960
75   2     10.45480     12.43185      1.99747         0.520724     -0.111501     -0.120018
76   2     10.56718      2.02397     12.48404        -0.131346      0.261894      1.022993
77   2      8.32914      0.09702      3.83227         0.148131     -0.496049      0.744027
78   2      8.13105      2.06952      6.05727         0.334349     -1.441081      1.059438
79   2     10.33852     12.45511      6.08134        -0.154975     -0.581255      0.685968
80   2     10.56669      1.80050      4.14487         0.206418      1.121904     -0.327437
81   2      8.28975     12.41937      8.32959        -0.094561     -0.180470     -0.411879
82   2      8.76405      2.06730     10.55307        -1.524394     -0.512386     -0.643436
83   2     10.40488     12.21611     10.49037         0.321975      0.687895      0.032472
84   2     10.37146      1.79950      8.21387        -0.193436      0.641003     -0.041172
85   2      8.41258      4.14440      0.01845         0.358923      0.241547      0.336197
86   2      8.45316      6.52945      2.06625        -0.295901     -1.738315     -0.127582
87   2     10.45531      4.23412      2.06223         0.333451      0.169892      0.117473
88   2     10.67830      6.32967     12.44151        -0.442275     -0.386147      0.483099
89   2      8.55641      4.01955      4.35028        -0.885558      1.290748     -1.762947
90   2      8.42482      6.32090      6.27035         0.162449     -0.008798     -0.595679
91   2     10.37230      4.06381      6.21893         0.973263     -0.083084      0.958244
92   2     10.51016      6.41923      4.06307        -0.583110     -0.751495      0.205052
93   2      8.58018      3.98423      8.31405        -0.417926      0.174430      0.252144
94   2      8.39440      6.39499     10.65806         0.175041     -0.416295     -0.332280
95   2     10.39041      4.27516     10.36213         0.521131      0.179043      0.621307
96   2     10.35751      6.19261      8.32746         0.156133      0.401572     -0.089141
97   2      8.27790      8.31762      0.07997        -0.452292      0.663188     -0.312832
98   2      8.18628     10.46060      1.96696         0.366956     -0.149609     -0.157886
99   2     10.53546      8.40686      2.07197        -0.111040     -0.394854      0.128216
100   2     10.41328     10.19374      0.05756         0.234399      0.979643     -0.037466
101   2      8.27051      8.42432      3.94854         0.352470      0.311603      1.036320
102   2      8.28711     10.28606      6.02771        -0.573779      0.302708      1.001873
103   2     10.46691      8.35784      6.25771        -0.099819     -0.136723     -0.090770
104   2     10.27559     10.41104      4.17499         0.841301      0.137094     -0.494501
105   2      8.50850      8.37831      8.46376        -0.380397      0.269643     -0.269550
106   2      8.37390     10.43182     10.57073        -0.266763     -0.935399     -0.428912
107   2     10.50758      8.37391     10.52872        -0.500131     -0.494272     -0.182781
108   2     10.57072     10.33301      8.28225        -1.057189      0.384532      0.127863
