ITEM: TIMESTEP
0
ITEM: NUMBER OF ATOMS
108
ITEM: BOX BOUNDS pp pp pp
0.0 12.5220000000000002 
0.0 12.5220000000000002
0.0 12.5220000000000002
ITEM: ATOMS id type x y z fx fy fz
1   2     12.38008      0.09949      0.16546        -0.045526     -0.168748     -0.671137
2   2     12.49649      1.96119      2.29173         0.238397     -0.128647     -0.633355
3   2      2.03291      0.05839      2.13107         0.080424     -0.412134     -0.187559
4   2      2.12136      1.89881     12.49355        -0.215246      0.983073      0.216425
5   2     12.30434     12.38904      4.35130         2.155659      0.894949     -0.551481
6   2     12.45408      1.96094      6.29589        -0.053775      0.980919     -0.334501
7   2      2.07979      0.23652      6.28007         0.296338     -1.358595     -0.011049
8   2      2.19960      2.00815      4.20739        -0.458594      0.205731     -0.037085
9   2     12.46367      0.07122      8.34959         0.216849     -0.668200      0.432592
10   2     12.47654      2.14242     10.40423        -0.039021      0.018554      0.265481
11   2      2.02980     12.51796     10.55728        -0.111815     -0.249531     -0.758641
12   2      1.85097      2.13439      8.31394         0.941501      0.458318      0.747366
13   2      0.05666      3.96405      0.03202         0.190284      0.422193     -0.000012
14   2      0.04286      6.32239      2.19546        -0.050613     -0.729935     -0.241227
15   2      2.26600      4.12195      2.13053        -0.326666     -0.136149      0.101255
16   2      2.01708      6.02528      0.20033        -0.108222      0.632018     -0.716340
17   2      0.04523      4.00268      4.07676         0.363815      0.931774      0.690212
18   2     12.51418      6.25128      6.07927         0.638673     -0.089800      0.139306
19   2      2.04561      4.03587      6.19233         0.010272      0.482232      0.242039
20   2      2.23487      6.24188      4.08358        -0.246869     -0.327821      0.483674
21   2     12.44343      4.32694      8.17185         0.300385     -0.417050      0.162175
22   2      0.11158      6.19692     10.38789        -0.010125     -0.461253      0.838989
23   2      2.29246      4.15271     10.51585        -0.819133     -0.221853     -0.116545
24   2      2.17510      6.18374      8.45827         0.165977      0.233640     -0.426646
25   2      0.10126      8.45916     12.47976        -1.019083     -0.809330      0.239673
26   2     12.49901     10.61619      2.15052         0.544280     -0.118328     -1.153863
27   2      2.08863      8.28130      2.13381         0.142479      0.438383     -0.592721
28   2      1.90951     10.39504     12.51233         0.533918      1.043378      0.365423
29   2      0.12618      8.57257      4.01674         0.027346     -0.380674      1.352741
30   2      0.09810     10.36766      6.41508        -0.395974     -0.105969     -0.178490
31   2      2.04548      8.38690      6.19693         0.269569     -0.354660      0.174515
32   2      2.16985     10.69034      4.10889         0.144206     -0.427510      0.650602
33   2      0.09186      8.05032      8.42174        -0.116952      0.993240     -0.631169
34   2     12.36450     10.54312     10.44380         0.667963     -0.127390      0.232673
35   2      2.14987      8.32643     10.63624        -0.814308     -0.467522     -1.478232
36   2      1.98074     10.47541      8.46185         0.188463     -0.075330      0.090239
37   2      4.12021     12.37311      0.03598         0.102881      0.093654     -0.248235
38   2      4.02035      1.99970      2.10783         0.990550      0.234221     -0.346319
39   2      6.27744     12.51791      1.93406         0.115398     -0.704193      1.081773
40   2      6.17972      1.98030      0.15163        -0.203298      0.783709     -0.935391
41   2      4.34255      0.06549      4.21336         0.091406     -0.457580      0.015486
42   2      4.31960      2.00229      6.41143        -0.197859      0.776462     -0.211000
43   2      6.25049     12.50334      6.42019         0.232344     -0.190480     -0.525715
44   2      6.23199      2.26077      4.06193         0.519847     -0.642420      0.077374
45   2      4.13245      0.04887      8.31370        -0.211310     -0.413742      0.812965
46   2      4.20036      2.00712     10.47185        -0.205785      0.141199     -0.187905
47   2      6.21003      0.05607     10.42960         0.112226     -0.402114     -0.107683
48   2      6.40593      2.10717      8.46767        -0.441126     -0.465450     -0.558059
49   2      4.30437      4.28302     12.39520        -0.381118     -0.795798      0.650354
50   2      4.27599      6.40424      1.96847        -0.132001     -0.696724      0.628062
51   2      6.22318      4.23077      1.89853        -0.019111      0.206716      0.684909
52   2      6.22322      6.33155     12.45133         0.837144     -0.001460      0.665390
53   2      4.20006      4.05283      4.30923         0.047058      0.645793     -0.310757
54   2      4.13539      6.16148      6.24700        -0.089977      0.427794      0.155520
55   2      6.29439      4.10004      6.36336        -0.264384      0.021743     -0.168681
56   2      6.32358      6.33208      4.32144        -0.983610      0.034687     -0.763370
57   2      4.16295      4.24418      8.43536         0.204549     -0.536067     -0.317925
58   2      4.37513      6.36013     10.52477        -1.220825     -0.494641     -1.112995
59   2      6.29863      4.06926     10.41919        -0.371657      0.468288      0.139741
60   2      6.26358      6.25775      8.27125        -0.676413      0.078417      0.648594
61   2      4.02610      8.36800     12.46835         0.890012      0.084965      0.741877
62   2      4.12214     10.34623      1.94142         0.005921      0.454342      0.523198
63   2      6.16928      8.41865      2.09966         0.518652     -0.075622     -0.282152
64   2      6.31276     10.38214     12.41944        -0.114418     -0.061201      0.207326
65   2      4.10029      8.40995      4.13110         0.300277      0.085005      0.524953
66   2      4.10349     10.42232      6.39458        -0.087919      0.154988     -0.446504
67   2      6.22166      8.41143      6.21693        -0.635412      0.171008     -0.152249
68   2      6.28007     10.43635      4.11089        -0.381373      0.408072     -0.030180
69   2      4.12563      8.40686      8.45136        -0.311696     -0.498798     -0.501114
70   2      4.12822     10.40865     10.43761         0.150725      0.534199     -0.069851
71   2      6.26315      8.30364     10.41381         0.730094      0.588155     -0.129940
72   2      6.26382     10.29010      8.36656        -0.223881      0.543884      0.189222
73   2      8.31517      0.12500     12.39978         0.085546     -0.047378      0.324654
74   2      8.26597      2.26686      2.05249         0.337914     -0.252296      0.436847
75   2     10.25197      0.01182      2.04682        -0.287480      0.260579     -0.034726
76   2     10.39570      2.23430      0.16102        -0.177071     -0.543566     -0.903736
77   2      8.30716      0.02238      4.22325        -0.207852      0.345840     -0.472469
78   2      8.33795      2.05572      6.25581         0.046805     -0.169416     -0.093354
79   2     10.46169     12.41364      6.24027        -1.114702     -0.124956      0.953578
80   2     10.52194      2.03743      4.28851        -1.207194      0.059423     -0.466292
81   2      8.32554     12.26193      8.31902         0.063920      0.908081      0.004243
82   2      8.34845      2.25712     10.43865         0.628072     -0.858122      0.419817
83   2     10.36868      0.06929     10.45546         0.053283      0.548442      0.050097
84   2     10.45945      2.04609      8.33049        -0.489233      0.117815      0.026043
85   2      8.39748      4.36096     12.43501         0.220584     -0.322154      0.755801
86   2      8.27286      6.35499      2.09298         0.418419     -0.310361      0.121066
87   2     10.54347      4.07485      2.15855        -0.568394      1.031281      0.232648
88   2     10.67961      6.25030     12.48345        -0.108130     -0.103000      0.222679
89   2      8.23779      4.38467      4.21252         0.653879     -0.512459     -0.327581
90   2      8.16522      6.34692      6.37678         1.303334     -0.520861     -0.876395
91   2     10.36894      4.13246      6.13468         0.079913      0.408401      0.068105
92   2     10.55525      6.41975      4.18439        -0.805101     -0.545499     -0.433471
93   2      8.41979      4.13326      8.30238        -0.290217     -0.113112     -0.373696
94   2      8.29988      6.13526     10.35677        -0.076735      0.798314     -0.332029
95   2     10.41972      4.24656     10.29967         0.689800     -0.542600      0.868292
96   2     10.32472      6.16238      8.35438         0.268871      0.950829     -0.571111
97   2      8.41845      8.05397     12.40918         0.282934      0.892415      0.167454
98   2      8.34387     10.35452      1.97729        -0.017719      0.079969     -0.083278
99   2     10.66410      8.38505      2.07542        -1.034245     -0.005079     -0.667039
100   2     10.26153     10.42396     12.38124         0.583096     -0.219506      0.812598
101   2      8.33930      8.41194      4.07196         0.517365     -0.094888      0.207647
102   2      8.32794     10.45800      6.09817         0.426949     -0.343573      0.170447
103   2     10.47763      8.23074      6.29336         0.023309      0.731521      0.059553
104   2     10.55164     10.51066      3.99882        -1.984262     -1.291770      0.851707
105   2      8.30754      8.39530      8.14624         0.612923      0.351583      1.043002
106   2      8.33969     10.48332     10.47472        -0.434491     -0.649964     -0.492118
107   2     10.49729      8.31556     10.35754        -0.265309     -0.159792      0.001558
108   2     10.48885     10.49456      8.44750        -0.209570     -0.737121     -0.716583
