ITEM: TIMESTEP
0
ITEM: NUMBER OF ATOMS
108
ITEM: BOX BOUNDS pp pp pp
0.0 12.5220000000000002 
0.0 12.5220000000000002
0.0 12.5220000000000002
ITEM: ATOMS id type x y z fx fy fz
1   2     12.35779      0.07601     12.34171         0.385769     -1.433259      1.113037
2   2      0.13530      2.16345      2.04788        -1.258437     -0.180032      0.662583
3   2      2.03884     12.37996      2.22094        -0.879451     -0.460022     -0.443179
4   2      2.01996      1.74982      0.22659         0.061093      0.880987     -1.574509
5   2     12.50734     12.51141      4.27399        -1.651869     -0.309636     -1.056464
6   2     12.41055      2.24139      6.14122        -0.125744     -0.461877      0.847838
7   2      1.89572     12.49153      6.16253         1.184628     -1.197377      1.438144
8   2      1.88334      1.88474      4.38911         1.469017      1.636063     -1.608227
9   2     12.19888      0.06633      8.25674         0.441885      0.243854     -0.587978
10   2      0.16579      1.85685     10.31553        -0.215214      2.200884     -0.320311
11   2      1.95870     12.46032     10.32222         1.083455      0.421139     -0.989419
12   2      1.98229      2.00392      7.97240         0.443555      0.153816      0.984668
13   2      0.30783      4.30113      0.03098        -0.422543     -0.900057     -0.555456
14   2      0.27840      6.26941      2.02650        -1.035488      0.054189      0.540917
15   2      2.12339      4.07972      2.25567         0.697360      0.222126      0.193883
16   2      2.12630      6.41779      0.09188         1.267149      0.135493     -0.266539
17   2     12.40517      4.27245      4.13808         0.481081     -0.419093     -0.262223
18   2      0.14356      6.21937      6.18094         0.031418      0.032247     -0.011809
19   2      2.26184      4.14834      6.10211        -0.134224      0.052358     -0.486600
20   2      2.18282      6.22223      4.12717        -0.058536     -0.033744      0.209363
21   2      0.15787      4.32813      8.26100        -0.135109     -0.417692      0.740449
22   2      0.14412      6.42849     10.63359         0.110815     -0.764185     -0.893473
23   2      2.16091      4.39471     10.27377        -0.682914     -0.353978      0.792713
24   2      2.09372      6.33776      8.26790         0.379059      0.578835      0.089226
25   2      0.14252      8.71067      0.02439        -0.238673     -0.206748     -0.511005
26   2     12.17895     10.20618      2.27315        -0.052086      1.376764     -0.546865
27   2      1.96748      8.58636      2.10394         0.457625     -0.477252     -0.774637
28   2      2.21032     10.73450     12.28340        -0.692463     -0.905851      0.956842
29   2     12.40577      8.21714      4.05164         0.220047     -0.514558      0.576505
30   2      0.00336     10.52371      6.48265        -0.239686     -0.915325     -0.150836
31   2      1.99922      8.36240      6.25237        -0.074190      0.370764      0.065207
32   2      1.75468     10.39954      4.12704         0.673197     -0.043944      0.884844
33   2     12.46386      8.23124      8.58754         0.372361      0.875731     -0.753069
34   2     12.32180     10.61705     10.26712         0.173339     -0.938789      0.288240
35   2      2.08665      8.40424     10.49555         0.834382      0.257651      0.020534
36   2      2.13210     10.34815      8.46249         0.040968      0.065276     -0.492121
37   2      4.28043      0.17268     12.43172        -0.175558     -0.394202      0.039689
38   2      3.93048      1.89575      2.13364         1.221066      0.651536      0.700431
39   2      6.32481     12.36390      1.94183        -0.012376      0.532027     -0.151857
40   2      6.13279      2.17684     12.35345         0.579648     -0.249427      1.228576
41   2      4.19743     12.18269      3.88353         0.368175      0.259488      0.819867
42   2      4.29428      1.62816      6.04409        -0.804938      0.355123      0.022184
43   2      6.61270      0.34058      6.39621        -0.146254     -1.079572     -0.729861
44   2      6.57248      2.11241      4.18903         0.332247     -0.806184     -0.805809
45   2      4.31760     12.51294      8.44260        -0.278908      0.118631     -0.428838
46   2      3.86043      2.20774     10.50309        -0.471542     -0.734732     -0.621163
47   2      6.41216      0.10370     10.50388        -0.661212     -0.275739     -0.780687
48   2      6.19112      2.17685      8.44755         0.098199     -1.138581      0.164606
49   2      4.01920      4.12509      0.07002        -0.441062      0.123908      0.371559
50   2      4.24393      6.38282      2.24567        -0.342173     -1.114460     -0.181855
51   2      6.34941      3.96764      2.01472        -0.443944      0.101067      0.419287
52   2      6.16247      5.93652      0.13272         0.209875      0.677557     -0.370111
53   2      4.53197      3.87770      4.21879        -1.409027      0.406062     -0.401655
54   2      4.13669      6.44412      6.16442        -0.316904     -0.176818     -0.010571
55   2      6.24092      3.82194      6.39686        -0.128961      1.512893     -0.147028
56   2      6.14229      6.15290      4.34165         0.268653      0.348784      0.029099
57   2      3.95445      4.17339      8.23622         0.939158     -0.136519     -0.086576
58   2      4.26001      6.30952     10.52384        -0.429720     -0.031743     -0.110021
59   2      5.97933      3.95995     10.35757         0.457853      1.803206      0.010527
60   2      6.04690      6.28500      8.13535         0.680863     -1.000943      0.509129
61   2      4.34578      8.30275      0.24684        -0.598859     -1.066146     -1.413915
62   2      4.16100     10.42003      1.72762        -0.227509      0.750362      1.516270
63   2      6.23088      8.33601      2.31995        -0.143373      0.314634     -0.111206
64   2      6.08582     10.46127     12.31352         2.001953     -0.112000      0.737905
65   2      3.92185      8.53154      4.03474         0.745281      0.298726      0.759811
66   2      4.01116     10.50927      6.24932         0.295581     -0.004012     -0.002867
67   2      6.28951      8.51316      6.41976        -0.273037     -0.328709     -0.959749
68   2      6.36662     10.48339      4.36907        -0.294534     -0.041637      0.203272
69   2      4.31284      8.37449      8.38771        -0.830948      0.519327      0.403929
70   2      4.28590     10.57535     10.43125        -0.861244     -0.609428     -1.045920
71   2      6.29120      8.17061     10.66503         0.061455      0.486126     -0.279906
72   2      6.46543     10.35233      8.60467        -1.121915      0.058927     -0.323545
73   2      8.43256      0.02815     12.32926        -0.015360     -0.275933      1.259900
74   2      8.51639      2.28879      1.96512        -0.229904     -0.386457      0.130680
75   2     10.36799      0.24531      1.94712         0.944708     -0.577118     -0.228268
76   2     10.66988      2.14185     12.32671        -0.636486      1.133208      0.226178
77   2      8.40710     12.42393      3.77341        -0.161650      1.244369      1.766799
78   2      8.56819      2.34600      6.22310        -0.183496     -0.299032      0.218356
79   2     10.26376      0.16309      6.18423        -0.141965     -0.576784      0.361130
80   2     10.46605      2.05679      4.15542        -0.138591      0.481663     -0.782640
81   2      8.32721     12.43614      8.38949         0.741516      0.736254      0.206018
82   2      8.32908      2.10480     10.50062         0.403682      0.649075     -0.621284
83   2     10.36724      0.04343     10.28915        -0.451409      0.102570      0.165016
84   2     10.44545      2.41316      8.52780         0.142810     -0.916428      0.191980
85   2      8.41935      4.19286     12.42477        -0.103979     -0.001951      0.399716
86   2      8.28295      6.22996      2.08003        -0.664918     -0.960631     -0.581465
87   2     10.50844      4.29400      1.94098         0.239155     -0.083560     -0.088364
88   2     10.71233      6.40066     12.41039        -0.782769     -0.962117      0.820111
89   2      8.38744      4.51375      4.21251        -0.717308     -2.200059     -0.462324
90   2      8.45495      6.12226      6.32457        -0.659622      0.946741      0.280918
91   2     10.57120      4.16339      6.45205        -0.264381      1.151554     -0.757977
92   2     10.40899      6.15148      4.16947         0.890971      0.733819     -0.083713
93   2      8.39310      4.33332      8.42974        -0.674075     -0.586374     -0.115651
94   2      8.09217      6.11641     10.43383         0.164116      0.402422      0.398707
95   2     10.39950      4.38046     10.50523         0.783624     -0.004212     -0.196456
96   2     10.46368      6.40930      8.31817         0.115805     -0.744378      0.647265
97   2      8.19136      8.33080      0.25631        -0.103283      0.288745     -1.076610
98   2      8.35651     10.29826      2.30376         0.265075     -0.766985     -1.141259
99   2     10.28578      7.98216      1.99755         1.028107      1.273659      0.585771
100   2     10.40546     10.45502      0.21352        -0.495698     -0.015578     -0.565185
101   2      8.27737      8.12821      4.10634         0.332185      0.450182      1.387948
102   2      8.31009     10.37741      6.46652        -0.007998      0.152259     -1.396650
103   2     10.63494      8.12426      6.14777        -0.647879      0.934174      0.255740
104   2     10.49321     10.46452      4.40818        -0.643260     -0.223455      0.286319
105   2      8.26761      8.12102      8.42670         0.154377      0.190178      0.168330
106   2      8.47310     10.41026     10.41955         0.255114     -0.540159      0.902036
107   2     10.37054      8.31863     10.59772        -0.292323      0.612419     -0.386869
108   2     10.29770     10.19071      8.18124         0.797524     -0.004373      0.732521
