ITEM: TIMESTEP
0
ITEM: NUMBER OF ATOMS
108
ITEM: BOX BOUNDS pp pp pp
0.0 12.5220000000000002 
0.0 12.5220000000000002
0.0 12.5220000000000002
ITEM: ATOMS id type x y z fx fy fz
1   2     12.48911     12.43112     12.45910         0.142952      0.570530      0.227824
2   2      0.02477      2.01667      2.06254        -0.080312      0.301711     -0.324425
3   2      2.08283     12.49475      2.29782        -0.106712     -0.299377     -0.729150
4   2      2.11623      2.07307      0.11686        -0.203661     -0.103730     -0.104696
5   2     12.34265      0.06531      4.19863         0.065385     -0.166712      0.185428
6   2     12.43651      2.24864      6.29415         0.672343     -0.726094     -0.392010
7   2      2.02989      0.00164      6.16162         0.312329      0.386101      0.170791
8   2      2.07550      2.07606      4.08330         0.368928      0.136135      0.604665
9   2      0.05473      0.05266      8.35648        -0.020428     -0.165942     -0.230054
10   2      0.15087      2.06315     10.37093        -0.369409     -0.166276      0.419004
11   2      2.23674      0.00299     10.38783        -0.668454      0.115185      0.226308
12   2      2.16047      2.04043      8.35281         0.132329      0.105570     -0.523911
13   2      0.04685      4.28145     12.33735         0.048516     -0.339265      0.886546
14   2      0.02633      6.33229      2.12013         0.009907     -0.373684     -0.266387
15   2      2.01392      4.20807      2.11568         0.362339      0.025355     -0.463597
16   2      2.18516      6.46745     12.47814        -0.241211     -0.426346      0.246176
17   2      0.08227      4.10264      4.12683        -0.366118      0.092071      0.367787
18   2      0.01881      6.09821      6.30667        -0.177849      0.437591     -0.097548
19   2      2.19404      4.15631      6.24165        -0.112264     -0.346256     -0.060242
20   2      1.99661      6.26203      4.23109         0.481060     -0.066732      0.030287
21   2      0.05618      4.15448      8.34236         0.099794      0.144060      0.512524
22   2     12.50507      6.34571     10.46331         0.048630     -0.011357     -0.290175
23   2      2.06578      4.11897     10.46788         0.613736      0.322448     -0.105580
24   2      2.03277      6.18150      8.38559         0.046401      0.115870     -0.139852
25   2      0.05168      8.41064      0.05970        -0.365729      0.298952     -0.128316
26   2     12.38148     10.50014      2.23650         0.233095      0.085679     -0.270414
27   2      1.93962      8.34728      2.15377         0.639550      0.442765     -0.313312
28   2      2.05811     10.61712     12.42095         0.119406     -0.649982      0.688176
29   2      0.04673      8.36676      4.27835        -0.432482      0.078320      0.147546
30   2      0.04648     10.55060      6.23462        -0.439674     -0.147712      0.036782
31   2      2.01929      8.42833      6.25841         0.216085     -0.256086      0.224874
32   2      2.14191     10.37557      4.23145        -0.181817      0.419596     -0.097716
33   2      0.05882      8.31834      8.37141        -0.342343      0.018403     -0.169290
34   2      0.03450     10.39835     10.43999        -0.303497     -0.133853     -0.216434
35   2      2.08398      8.37472     10.34729         0.002863      0.234882      0.197166
36   2      2.11720     10.51952      8.34303        -0.219376     -0.169973     -0.516134
37   2      4.28488     12.35474     12.49647         0.027141      0.415934      0.278491
38   2      4.21275      1.99925      1.99781         0.151494      0.135223      0.203045
39   2      6.39623     12.42013      2.03673        -0.324915      0.220193     -0.131255
40   2      6.35502      2.11738      0.06472        -0.841520     -0.114194      0.145088
41   2      4.26578     12.42505      4.20912         0.110233      0.138895     -0.107490
42   2      4.25400      1.99497      6.15125        -0.516762      0.144556      0.392164
43   2      6.40412     12.49681      6.30935        -0.649810     -0.258636     -0.650148
44   2      6.17958      2.08269      4.16811         0.163281     -0.139312     -0.132751
45   2      4.22047     12.50724      8.34501        -0.393960     -0.177749     -0.781316
46   2      4.10021      2.02640     10.61384         0.304977      0.398941      0.002203
47   2      6.19945      0.00063     10.31880         0.333091     -0.402896      0.858776
48   2      6.09919      1.99328      8.39238         0.160321      0.790948     -0.301523
49   2      4.13465      4.37166      0.10217        -0.216552     -0.608114     -0.028855
50   2      4.13306      6.25061      2.16857        -0.314383      0.396224     -0.313256
51   2      6.30001      4.31418      2.13708        -0.390811     -0.609986     -0.539794
52   2      6.16675      6.37553     12.45667        -0.132822     -0.112486      0.498224
53   2      4.23779      4.18453      4.19902        -0.416119     -0.169441     -0.052478
54   2      4.08315      6.33722      6.32489         0.048384     -0.286972     -0.590889
55   2      6.14422      4.35149      6.40387         0.378041     -0.295716     -0.267861
56   2      6.17203      6.26765      4.08653         0.334934      0.413741      0.627263
57   2      4.15831      4.13175      8.33330        -0.351999      0.023007      0.125998
58   2      4.09213      6.38857     10.32458         0.245731     -0.180564      0.228159
59   2      5.92433      4.17929     10.48734         0.630930     -0.040136      0.002990
60   2      6.31204      6.43778      8.43674        -0.089696     -0.520380     -0.188854
61   2      4.12410      8.56432     12.48275        -0.109045     -0.283444      0.173293
62   2      4.12870     10.45139      2.13557         0.020067      0.014606     -0.321289
63   2      6.26622      8.40985      2.02658        -0.388293     -0.622823     -0.189207
64   2      6.31981     10.36649     12.46961         0.130975      0.604526     -0.028016
65   2      4.11800      8.36878      4.06929         0.307130     -0.181988      0.473729
66   2      4.39282     10.43483      6.22832        -0.171229     -0.119885     -0.004740
67   2      6.30197      8.19371      6.23018         0.211655      0.377011     -0.275169
68   2      6.44134     10.35597      4.03740        -0.612411      0.239970      0.856118
69   2      4.09651      8.32762      8.17920         0.145465      0.484251      0.518991
70   2      4.15915     10.40942     10.26069         0.260808     -0.292506      0.527080
71   2      6.34778      8.38914     10.48448        -0.291536     -0.163700     -0.325908
72   2      6.30246     10.27184      8.43844         0.207736      0.126761     -0.649964
73   2      8.34348      0.09703     12.41922         0.241662     -0.409706      0.139955
74   2      8.24998      2.21560      2.25678         0.429935     -0.281276     -0.499667
75   2     10.41842      0.19605      1.94599        -0.321800     -0.357641      0.057400
76   2     10.52941      2.15574     12.33989         0.006348     -0.154761      0.196483
77   2      8.42401     12.50742      4.03494        -0.089832      0.084176      0.421679
78   2      8.28265      2.03878      6.20247        -0.055324      0.415281      0.132467
79   2     10.38451      0.13705      6.38681         0.104168     -0.514974     -0.300067
80   2     10.38941      2.13570      4.17989         0.073909      0.239256      0.022715
81   2      8.24347      0.06778      8.32327         0.832960     -0.196385      0.495661
82   2      8.18611      2.11570     10.46190         0.568606     -0.153143     -0.125433
83   2     10.52223     12.46743     10.33260        -0.381832      0.263412      0.012064
84   2     10.48409      2.16344      8.39818        -0.444882     -0.678722      0.829689
85   2      8.37878      4.02781      0.06822         0.305335      0.649303      0.039699
86   2      8.32787      6.21986      2.03961         0.451986      0.089453     -0.206291
87   2     10.60478      4.22523      2.10191        -0.442802     -0.324770     -0.268913
88   2     10.51221      6.28213      0.06826        -0.490072      0.070003      0.025970
89   2      8.26119      4.15523      4.28136         0.206382     -0.104853     -0.301439
90   2      8.44267      6.12449      6.10184        -0.396732      0.756094      0.619408
91   2     10.36556      4.08859      6.51394        -0.342882      0.272922     -1.217799
92   2     10.55378      6.17491      4.20538        -0.193654     -0.070606      0.197570
93   2      8.12366      3.97875      8.45457         0.179152      0.579742     -0.290026
94   2      8.15095      6.02507     10.53700         0.697639      0.161790     -0.143902
95   2     10.46127      4.24992     10.40475        -0.322602     -0.048671     -0.096671
96   2     10.31987      6.17567      8.27217         0.311742      0.242135      0.630060
97   2      8.35116      8.34999     12.44841         0.454424     -0.288961      0.369374
98   2      8.40599     10.27295      2.08070         0.344352      0.700313     -0.734001
99   2     10.50779      8.33285      2.31033         0.024751     -0.202189     -0.998755
100   2     10.39946     10.47438      0.01694        -0.015824     -0.271596     -0.016824
101   2      8.35119      8.22846      4.06291        -0.210197     -0.405030      0.813760
102   2      8.31461     10.41104      6.29278        -0.008829     -0.141978      0.140102
103   2     10.51837      8.36605      6.29810         0.015354     -0.358634     -0.253692
104   2     10.22529     10.36405      4.24811         0.822046      0.495955      0.279228
105   2      8.50452      8.26016      8.31382        -0.476066      0.267476     -0.014694
106   2      8.43709     10.47127     10.34701         0.069527      0.042295      0.098490
107   2     10.35851      8.21192     10.47203         0.246464      0.258621     -0.124250
108   2     10.53275     10.38422      8.26881        -0.138257      0.249963      0.307159
