ITEM: TIMESTEP
0
ITEM: NUMBER OF ATOMS
108
ITEM: BOX BOUNDS pp pp pp
0.0 12.5220000000000002 
0.0 12.5220000000000002
0.0 12.5220000000000002
ITEM: ATOMS id type x y z fx fy fz
1   2     12.17828      0.16429     12.46687         1.057341     -0.324460      0.614309
2   2      0.08846      2.13874      2.23881         0.359697      0.009563     -0.222346
3   2      2.31125      0.00376      1.98100        -0.185184      0.970566     -0.313892
4   2      2.10346      2.01076     12.37545         0.101321      0.098753      0.367239
5   2      0.35159     12.48928      4.05962        -0.245591     -0.101901      0.585484
6   2      0.11185      2.15519      6.32798         0.124498     -0.818012      0.052911
7   2      2.09577     12.48008      6.24589        -0.267806     -0.020969      0.000614
8   2      2.31413      2.12415      4.32634        -0.757893      0.621632     -0.683600
9   2      0.03555     12.48506      8.42704        -0.728244      0.610111     -0.313372
10   2     12.26235      2.01936     10.47226         1.100373     -0.353197     -0.508860
11   2      1.92401      0.03772     10.38948         0.796178      0.204239      0.475123
12   2      2.22314      2.07661      8.45372        -0.249777     -0.646983     -0.234217
13   2     12.49935      4.05354     12.45172         0.238048     -0.083315      0.566404
14   2     12.40373      6.22574      2.03711         0.122457     -0.054583     -0.032171
15   2      2.01424      4.38755      2.11974         0.073882     -0.870505      0.024520
16   2      2.01936      6.13740     12.29067         0.051730      0.171976      0.786923
17   2     12.37932      4.22952      4.30560         1.451053      0.013537     -1.275589
18   2      0.03053      6.34582      6.42761        -0.157564     -0.198084      0.130439
19   2      2.10978      4.10652      6.43447        -0.117431      0.818357     -0.567073
20   2      2.05727      6.25648      4.23740        -0.745914     -0.572030     -0.025241
21   2      0.00994      4.11942      8.42167        -1.010196      0.044536     -0.872759
22   2      0.03510      6.24624     10.40107        -0.929142      0.258078      0.047154
23   2      1.87288      4.09503     10.31272         1.090966     -0.235991      0.763248
24   2      1.93827      6.39768      8.45127         0.677293     -0.386204     -0.877753
25   2     12.48760      8.32033     12.52141         0.509561     -0.308829      0.633478
26   2      0.48413     10.52193      1.94737        -1.645152     -0.660605     -0.912180
27   2      2.53195      8.11672      1.78900        -1.824794      0.640297      0.925290
28   2      2.30150     10.52051     12.38039         0.377240      0.072613      0.266198
29   2      0.04327      8.18850      4.04623         0.496895      0.649285     -0.045369
30   2      0.08221     10.36299      6.24799        -0.352140      0.502779     -0.893677
31   2      1.98665      8.46725      6.41032         0.126344     -0.550726     -0.047058
32   2      2.17970     10.16372      3.90476         0.002745      0.523748      1.269873
33   2     12.33186      8.54951      8.50305         0.875793     -1.365187      0.214445
34   2      0.14148     10.35529     10.73444        -0.650462      0.351896     -0.656699
35   2      2.17290      8.28148     10.37131        -0.388410      1.003832      0.201036
36   2      1.88114     10.51169      8.42116         1.025578     -0.337950      0.123427
37   2      4.59483     12.45291     12.42302        -1.828682      0.316942      0.296484
38   2      4.08094      2.14770      2.06597        -1.162467      1.043511     -0.278245
39   2      6.04900      0.29844      2.16092         0.707272     -1.025116      0.739209
40   2      6.15201      2.26589      0.16421         0.677994      0.350547     -0.711146
41   2      4.17869      0.06964      4.26659        -0.188900     -0.816654      0.184520
42   2      4.19969      2.18149      6.32663         0.181228      0.220301     -0.168982
43   2      6.30261      0.02686      6.16485         0.402749     -0.113980     -0.342708
44   2      6.01906      2.19614      4.12984         0.418334      0.269704      1.275959
45   2      4.25108     12.36390      7.96735        -0.752464      1.114883      1.384235
46   2      4.40098      2.12344     10.29124        -1.521965      0.114419      0.203625
47   2      6.09346      0.13166     10.28017         2.029519     -0.257637     -0.909041
48   2      6.26326      2.16970      8.12113         0.647573      0.087168      0.189770
49   2      4.13547      4.19199     12.21859        -0.372245     -0.450027      0.429819
50   2      4.24534      6.08419      1.78933        -0.204082     -0.188374      0.556261
51   2      6.15704      4.17233      2.21723         0.336909      0.145221     -0.496756
52   2      6.20685      6.21095     12.41345         0.347449      0.210971     -0.370918
53   2      4.29895      4.56996      4.28184        -0.782329     -0.662489     -0.177490
54   2      4.06477      6.46543      6.36780        -0.159664     -0.533754      1.027420
55   2      6.25734      4.58498      6.22665        -0.563397     -1.165134      0.893913
56   2      6.36273      6.55529      4.14903        -0.799892     -0.059655      0.311574
57   2      4.10772      4.26223      8.37415         0.304316      0.341355     -0.068390
58   2      4.13419      6.31121     10.37912         0.342444     -0.129120     -0.441095
59   2      6.29505      4.10316     10.29152         0.177470      0.740845      0.285552
60   2      6.21496      6.36266      8.45457         0.080886     -0.296093     -0.288201
61   2      4.17885      8.38350     12.30996         0.597465     -0.318745     -0.729824
62   2      4.26776     10.61812      2.11262         0.042232     -0.770333      0.049378
63   2      6.02240      8.27358      2.08000         0.127605      0.298393      0.161834
64   2      6.16154     10.17110      0.09725         0.748399      0.449064     -0.198354
65   2      3.91313      8.18033      4.31127         1.522614      0.573445     -0.715246
66   2      4.16495     10.31259      6.25359        -0.110751      0.168769     -1.635371
67   2      6.29606      8.27543      6.28398         0.228034      0.796372      0.127757
68   2      6.26995     10.37102      4.11030        -0.198249     -0.380010      0.316497
69   2      4.27206      8.69223      8.37314        -0.923024     -1.630421      0.126405
70   2      4.26733     10.60910     10.31301        -0.767900     -0.076181      0.319794
71   2      6.32344      8.44143     10.24701        -0.036181     -0.320742      0.968665
72   2      6.25658     10.53250      8.24697         1.370885     -0.189612     -0.103631
73   2      7.85107     12.49999      0.21128         1.133750      0.268220     -0.741292
74   2      8.40215      1.99616      2.52690         0.307466      0.824610     -1.566225
75   2     10.70918     12.41006      2.25379        -0.771361      0.189668     -0.551407
76   2     10.23159      2.16900     12.50573        -0.535064     -0.548106      0.848973
77   2      8.17441     12.38614      4.05474         0.541422     -0.672697      0.804739
78   2      8.47489      1.82629      6.36078        -0.576205      0.753419     -0.455362
79   2     10.66074     12.46552      6.33365         0.157146     -0.716157      0.241371
80   2     10.44204      1.67996      4.39656         0.417913      0.972007     -1.055968
81   2      8.42857     12.34275      8.32536        -0.511543      0.145403      0.410824
82   2      8.23111      2.14310     10.51751        -0.396955     -0.755275      0.075507
83   2     10.30535     12.36147     10.45025        -0.310082      0.188820     -0.384551
84   2     10.25924      1.95110      8.46122         0.489234      0.072524     -0.468081
85   2      8.25607      4.31475      0.22272         0.166619     -0.686264     -0.036980
86   2      8.16381      6.26187      2.24160         1.189826      0.003632     -0.555034
87   2     10.49760      4.01079      2.08559        -0.441387      0.314159      0.453960
88   2     10.52351      6.05378     12.36553        -0.097590      0.149641      0.627548
89   2      8.11420      4.15461      4.26258         1.123555     -0.131736      0.041892
90   2      8.32009      6.29243      6.13414         1.087616      0.340956      0.603610
91   2     10.54418      3.93795      6.09256        -1.686827      0.504465      1.452620
92   2     10.57567      6.40273      4.46829        -0.810598     -0.482111     -0.693386
93   2      8.34723      4.30544      8.34402         0.030297     -0.415840     -0.682131
94   2      8.44728      6.14726     10.55286        -0.664188      0.229557     -0.192189
95   2     10.37624      3.91845     10.36614        -0.299924      1.517582      0.023922
96   2     10.39694      6.24479      8.52824         0.502192     -0.157750     -0.563256
97   2      8.26385      8.21185      0.07242        -0.146058      0.101617     -0.277022
98   2      8.36607     10.43431      2.02408         0.124250      0.079581     -0.196513
99   2     10.37376      8.22038      1.85831         0.310185      0.034496      0.352928
100   2     10.36540     10.48924     12.45531        -0.228847     -0.141472      0.806834
101   2      8.63391      8.59004      4.05508        -0.734828     -0.752316      0.341687
102   2      8.48902     10.41662      6.26822        -1.030631      0.403090     -0.691561
103   2     10.31767      8.42712      6.42266         0.699772     -1.248614     -0.926933
104   2     10.75565     10.30105      3.97977         0.201066      0.294781      0.368043
105   2      8.42616      8.25523      8.45355        -0.264481      0.314334     -0.010945
106   2      8.08967     10.54863     10.59375         0.558034      0.017053     -0.223486
107   2     10.37914      8.37515     10.63331        -0.194467      0.098182     -0.524114
108   2     10.49647     10.37708      8.20022        -0.661786      1.356435      1.562453
