ITEM: TIMESTEP
0
ITEM: NUMBER OF ATOMS
180
ITEM: BOX BOUNDS pp pp pp
0.0 15.336255 
0.0 14.75731
0.0 29.7984842388
ITEM: ATOMS id type x y z fx fy fz
1   2      0.00675     14.70215     29.61790         0.583716      0.323882     -0.328314
2   2      2.67052      1.45458     29.45440        -0.160347      0.245372      0.210244
3   2      1.81915      0.16205      2.22393         0.272127     -0.461553      0.381659
4   2      4.46219      1.37887      2.37614        -0.689420     -0.342791      0.282398
5   2      0.76843      1.55295      4.69091         0.209196     -1.111338      0.062224
6   2      3.32900     14.67719      4.92202         0.253192      0.288286     -0.677773
7   2      0.04454     14.62944      7.26086        -0.169974      0.451081     -0.140364
8   2      2.43452      1.27074      7.32831         0.072490      0.339357      0.028982
9   2      1.43825      0.00175      9.88033         0.336562      0.450934     -0.557234
10   2      4.24608      1.38308      9.49956        -0.191144      0.148250      0.188978
11   2      1.12279      1.69738     12.44760        -0.674583     -0.185884     -0.256844
12   2      3.36551      0.00888     12.03220         0.285946      0.007082      0.348064
13   2      0.16085      2.89925     29.43850        -0.181995     -0.604547      0.152106
14   2      2.51694      4.42259     29.43710         0.565790     -0.835674      0.175858
15   2      1.68491      2.96424      2.42694         0.452482      0.158268     -0.411366
16   2      4.28874      4.18443      2.35521        -0.717325      0.586396     -0.011739
17   2      0.78070      4.47883      4.88079         0.548485      0.416798     -1.136592
18   2      3.25739      2.77312      4.85136         0.554322      0.249252     -0.050723
19   2     15.13130      2.99594      6.81916        -0.154681     -0.694311      1.719649
20   2      2.44158      4.25594      7.23495        -0.054232     -0.032264      0.228175
21   2      1.53731      2.94099      9.80680         0.577042     -0.529584     -0.297490
22   2      4.09021      4.31850      9.63741        -0.143374     -0.017773     -0.167820
23   2      0.84777      4.63903     12.46120         0.112538     -0.502161     -0.179185
24   2      3.53487      2.87925     12.09520         0.084609      0.633033     -0.003807
25   2     15.30880      5.66591     29.56590         0.197287      0.623632     -0.184915
26   2      2.71955      7.09076     29.61690        -0.265767      0.968144      0.036545
27   2      1.68438      5.70736      2.20371         0.195200      0.485328      0.259385
28   2      4.33227      7.33841      2.23479        -0.416626     -0.264455     -0.095775
29   2      0.81878      7.27706      4.71141        -0.023364      0.643401      0.593008
30   2      3.25178      5.98787      4.73826         0.253292     -0.823571     -0.106169
31   2     15.27820      5.84066      7.33705         0.158162      0.283349     -0.104667
32   2      2.53831      7.21903      7.35532        -0.815562      0.134015     -0.389945
33   2      1.56800      5.75270      9.87760        -0.012416      0.155308     -0.370214
34   2      4.06349      7.19055      9.69978         0.461190      0.350409      0.165060
35   2      0.65519      7.51791     12.13430         0.654648      0.248089      0.347823
36   2      3.28763      5.97277     12.23620         0.262546      0.030205     -0.050010
37   2      0.31295      8.78801     29.37360         0.199098     -0.200579      0.547393
38   2      2.78275     10.35260     29.58100        -0.347920     -0.215095      0.201274
39   2      1.84593      8.73017      2.37559         0.035703      0.281254     -0.394590
40   2      4.43234     10.34940      2.28704        -1.060481     -0.272235     -0.154900
41   2      0.83233     10.26410      4.79747         0.100225      0.006602     -0.251053
42   2      3.39714      8.77017      4.78486        -0.374541      0.480854     -0.137317
43   2     15.25550      8.81459      7.28772         0.195054     -0.172476     -0.035402
44   2      2.46972     10.16160      7.17927        -0.382750      0.172302      0.335847
45   2      1.67812      8.67835      9.74331        -0.004102      0.527643     -0.166519
46   2      4.21568     10.33270      9.78592        -0.244759     -0.260579     -0.333394
47   2      0.79087     10.45760     12.31690         0.177775     -0.008552     -0.327878
48   2      3.33291      8.94513     12.28480        -0.574732      0.236388     -0.164616
49   2      0.22714     11.87060     29.49710         0.205713     -0.311163     -0.124027
50   2      2.75584     13.39030     29.78490        -0.173559     -0.494322      0.046003
51   2      1.60251     11.71400      2.16259         1.100147      0.454921      0.416569
52   2      4.64268     13.27370      2.42555        -1.011362      0.039242     -0.829487
53   2      0.83711     13.16370      4.83171        -0.016281      0.159291     -0.689565
54   2      3.30164     11.77730      4.55501         0.077969     -0.227987     -0.156248
55   2     15.23260     11.81480      7.25978         0.289684     -0.633305     -0.081236
56   2      2.56944     12.98280      7.02301        -0.020230      0.247720      0.890850
57   2      1.76571     11.70270      9.74493        -1.240562     -0.620142     -0.165868
58   2      3.88589     13.22980      9.69241         1.260379      0.709223     -0.551302
59   2      0.87731     13.33250     12.18420        -0.231442     -0.187990      0.118740
60   2      3.59058     11.88420     12.23930        -0.522460     -0.114267      0.081564
61   2      5.15637     14.73621     29.54350         0.189575     -0.061369      0.227570
62   2      7.59937      1.35198     29.49300         0.258715      0.268505      0.172987
63   2      6.99074      0.02099      2.29261         0.049281      0.020069      0.430452
64   2      9.31388      1.56869      2.36593         0.424324      0.263066      0.011370
65   2      6.24602      1.48205      4.88100        -1.102978     -0.432986     -0.110090
66   2      8.64448      0.09683      4.79353        -0.274534     -0.325661      0.011465
67   2      5.06575     14.64560      7.25302        -0.181830      0.134347     -0.331742
68   2      7.76005      1.62422      7.38878        -0.148633     -0.047020     -0.157985
69   2      6.82363     14.74507      9.57338        -0.184163      0.703117      0.858576
70   2      9.38498      1.55470      9.80574        -0.573856      0.120166     -0.265554
71   2      5.94574      1.50661     11.92680         0.384260     -0.154775      0.145280
72   2      8.57570      0.37179     12.45290        -0.215759     -0.406482     -0.512353
73   2      5.08512      2.95104     29.52320        -0.072816      0.032360      0.026784
74   2      7.59954      4.38036     29.67140         0.464534     -0.287219     -0.287103
75   2      6.73967      2.91975      2.22629         0.834885     -0.157450      0.317652
76   2      9.25092      4.59993      2.25773         0.287794     -0.485134      0.185071
77   2      5.72792      4.39980      4.84363         0.198046      0.141900     -0.686818
78   2      8.41989      3.08012      4.92983         0.750939      0.290066     -0.568561
79   2      5.07666      3.03890      7.11573        -0.322694     -0.993940      0.509393
80   2      7.51033      4.53746      7.20419         0.424647      0.093254      0.358124
81   2      6.68389      3.06308      9.61640         0.606112     -0.430303     -0.540658
82   2      9.37180      4.44354      9.62788        -0.336021      0.298009     -0.127186
83   2      5.96729      4.52059     11.75040        -0.229339      0.281846      1.167941
84   2      8.74432      3.17576     12.16450        -0.504550     -0.087166     -0.014611
85   2      5.30001      5.92006     29.46680        -0.313473     -0.189145      0.216845
86   2      7.90864      7.23327      0.01852        -0.091547      0.288635     -0.242341
87   2      6.69038      5.74156      2.32256         0.037180      0.425402      0.159164
88   2      9.30623      7.46468      2.41128         0.311745     -0.224439     -0.161741
89   2      5.78168      7.30922      4.70110         0.323417      0.024897      0.435256
90   2      8.30380      6.01999      4.83531         0.226014     -0.387157     -0.290009
91   2      4.94109      5.86564      7.22323         0.247129      0.264583      0.044302
92   2      7.47939      7.42035      7.27215         0.020961      0.166853     -0.223756
93   2      6.74215      6.09381      9.62232         0.173382     -0.023837      0.001696
94   2      9.33183      7.39069      9.65379         0.017785     -0.036315     -0.045198
95   2      5.71330      7.63660     12.05260         0.591553     -0.716029     -0.069759
96   2      8.44887      5.97245     12.13600         0.182055      0.417239     -0.293564
97   2      5.17998      8.72464     29.52870         0.171287      0.225306      0.319539
98   2      7.93195     10.23570      0.08202        -0.287648     -0.275477     -0.346306
99   2      6.77016      8.76878      2.47861         0.330734     -0.448306     -0.466710
100   2      9.55368     10.27210      2.36203         0.125559     -0.104623      0.410002
101   2      5.79971     10.35050      4.81886         0.219810     -0.322895      0.111104
102   2      8.43815      8.83785      4.81420         0.104127      0.315287      0.138266
103   2      4.90634      8.86577      7.22800         0.541759     -0.479698      0.252821
104   2      7.50910     10.34590      7.25765         0.002522      0.071936      0.036185
105   2      6.66307      9.00577      9.65833         0.418954     -0.192537     -0.070167
106   2      9.38798     10.42400      9.58953        -0.468538     -0.265234      0.346956
107   2      5.97832     10.40930     12.10800         0.293777      0.296110      0.137864
108   2      8.64050      8.99219     11.99560        -0.069906     -0.577587      0.049652
109   2      5.25001     11.65490     29.63340         0.252983      0.296994      0.112615
110   2      7.72888     13.24120      0.07752         0.086619     -0.282618     -0.263950
111   2      6.92055     11.51890      2.44105         0.527607      0.935826     -0.182520
112   2      9.43235     13.15190      2.45461         0.098262      0.280267     -0.072868
113   2      5.95437     13.23520      4.75029         0.368189      0.477571      0.877723
114   2      8.37841     11.75410      4.91187         0.387828      0.281713     -0.034675
115   2      5.07214     11.67500      7.21498        -0.257224      0.522297      0.196866
116   2      7.57470     13.41010      7.34055         0.029806     -0.265624     -1.173365
117   2      6.65001     11.98560      9.65824         0.077405     -0.461554      0.285679
118   2      9.34530     13.32580      9.58063        -0.446597      0.209694      0.981127
119   2      6.00310     13.42740     12.19890         0.337748     -0.040604     -0.232912
120   2      8.55386     11.76450     12.10440        -0.271654      0.499127     -0.121979
121   2     10.30030      0.08224     29.78470        -0.433300     -0.435706      0.187846
122   2     12.82560      1.17170     29.62360         0.117861      0.420071     -0.161482
123   2     12.12160      0.06353      2.33195        -0.593411      0.070231      0.230934
124   2     14.63440      1.57634      2.17367        -0.481744     -0.152578     -0.186426
125   2     11.20420      1.41471      4.78130        -0.020758      0.803632     -0.232538
126   2     13.78060     14.57062      4.75372        -0.300253      0.754539      0.034206
127   2     10.22500      0.17717      7.20082         0.028163      0.076747      0.159920
128   2     12.81320      1.43952      7.23224        -0.246049      0.063594     -0.413475
129   2     11.69020      0.03548      9.67472         0.835559     -0.038422     -0.294845
130   2     14.38740      1.50348      9.53427         0.041653     -0.679906     -0.049523
131   2     11.15960      1.65348     12.09960         0.216188     -0.016893      0.078221
132   2     13.45280     14.69074     11.91430         0.326998      0.979032      0.146544
133   2     10.04110      2.87101     29.28630         0.238140      0.248484      0.556852
134   2     12.80760      3.98097     29.37410        -0.125367      0.363295      0.163465
135   2     11.81200      3.03012      2.09938        -0.181947     -0.350248      0.279923
136   2     14.39740      4.44789      2.10935        -0.102343      0.054489      0.360034
137   2     10.98120      4.48678      4.70031         0.158047     -0.198494     -0.330087
138   2     13.60910      2.86750      4.45944        -0.641489      0.346879      0.010558
139   2     10.26400      3.18520      7.17757        -0.075970     -0.387356     -0.101123
140   2     12.77460      4.59603      7.06990        -0.156519     -0.107191     -0.144099
141   2     11.91220      3.06710      9.51231        -0.094830     -0.504038      0.187841
142   2     14.46220      4.24502      9.72911        -0.016600      1.376860     -1.219901
143   2     11.16640      4.59308     12.13960         0.214660      0.174982     -0.133440
144   2     13.85210      2.94572     11.93610        -0.507476     -0.566194      1.186775
145   2     10.51050      5.84449     29.49890        -0.191874     -0.341393      0.124687
146   2     13.07590      7.26520     29.75340        -0.029942     -0.038099     -0.056098
147   2     11.86200      5.84967      2.23036         0.165324      0.333170      0.208859
148   2     14.61620      7.50833      2.42135        -0.236500     -0.292268     -0.458247
149   2     11.05490      7.44377      4.59178         0.229291      0.150662      0.324199
150   2     13.68260      5.92274      4.65957        -0.634227     -0.027047      0.026693
151   2     10.16920      6.04038      7.02176        -0.263496      0.101413      0.395359
152   2     12.51800      7.58611      7.09962         0.228498     -0.342277      0.294351
153   2     11.90000      5.83498      9.53855         0.008116      0.542511      0.059604
154   2     14.44830      7.29975      9.61199        -0.296456      0.228865     -0.182522
155   2     11.19980      7.46982     12.43110        -0.190326      0.033649     -0.523814
156   2     13.73100      5.97302     11.99210        -0.831414     -0.154316      0.359223
157   2     10.64410      8.67265     29.60390        -0.449991      0.287927      0.311237
158   2     13.18090     10.17580     29.70550        -0.823549     -0.129373     -0.971442
159   2     12.12010      8.89213      2.35803        -0.184260     -0.119946      0.172668
160   2     14.62760     10.38460      2.09963         0.175649     -0.454894      1.234329
161   2     11.01570     10.54640      4.81394        -0.016967     -0.365499      0.137550
162   2     13.67510      8.99041      4.92230        -0.296821     -0.409061     -0.593062
163   2      9.94704      9.02284      7.25522         0.704553     -0.262263     -0.287534
164   2     12.73360     10.38500      7.23593        -0.377458      0.229750      0.232427
165   2     11.87580      8.68898      9.77814         0.164878      0.279258     -0.106002
166   2     14.57780     10.26290      9.71217        -0.317421      0.035040      0.061753
167   2     11.20060     10.47120     12.19010        -0.436350     -0.389138      0.003274
168   2     13.63190      9.04667     12.33170        -0.122906     -0.054531     -0.337159
169   2     10.38830     11.68940      0.02922         0.035500      0.145868     -0.166277
170   2     12.94710     13.01570     29.76730        -0.371159      0.409202     -0.767757
171   2     12.13660     11.82110      2.30393        -0.620671     -0.113207      0.388434
172   2     14.58750     13.42570      2.18708         0.532490     -0.286129      0.824455
173   2     11.06590     13.42030      4.78858         0.158771     -0.664480     -0.020092
174   2     13.61260     11.80270      4.63899         0.189269     -0.166753      0.313361
175   2     10.04380     12.06200      7.30104         0.659848     -0.746774     -0.898126
176   2     12.76770     13.28390      7.20903        -0.356894     -0.013289      0.100900
177   2     11.83440     11.71320      9.67086         0.468397      0.201356     -0.416451
178   2     14.44560     13.23190      9.58868        -0.212450     -0.028287      0.084071
179   2     10.87340     13.36190     12.13510        -0.064635      0.150454     -0.051400
180   2     13.51250     12.02580     11.94290         0.523842     -0.919885      0.486482
