ITEM: TIMESTEP
0
ITEM: NUMBER OF ATOMS
180
ITEM: BOX BOUNDS pp pp pp
0.0 15.336255 
0.0 14.75731
0.0 29.7984842388
ITEM: ATOMS id type x y z fx fy fz
1   2     15.09520     14.49007     29.65110         1.205224      0.937338      0.032053
2   2      2.43025      1.18889     29.79310        -0.102570     -0.059630     -0.125173
3   2      1.50047     14.74690      2.46908         0.414738     -0.264869     -0.937035
4   2      3.98914      1.53956      2.42247         0.410336     -0.808042     -0.023412
5   2      0.83541      1.47157      4.59159        -0.281682      0.224521      0.612933
6   2      3.49109      0.00694      4.93783        -0.016962      0.405587     -0.842052
7   2      0.12664     14.67972      7.04584        -0.440043      0.693404      0.209113
8   2      2.77624      1.68303      7.07075         0.015177     -0.332460      0.564777
9   2      1.77098      0.05222      9.53651         0.327759     -0.041246      0.225772
10   2      4.36442      1.37333      9.66004         0.047180      0.785553     -0.059020
11   2      0.92189      1.44216     12.09890         0.001467      0.129288     -0.138128
12   2      3.40013      0.05965     12.39450         0.073097     -0.138149     -0.449082
13   2     15.31270      2.80526     29.54890        -0.209841     -0.085006     -0.021229
14   2      2.29635      4.37587     29.61300         0.332887     -0.223724     -0.065466
15   2      1.47937      2.95676      2.13629         0.115693     -0.324152      0.163419
16   2      4.30529      4.29982      2.46097        -0.477621      0.963115      0.112238
17   2      0.88003      4.37978      4.49635        -0.288480     -0.228094      1.071462
18   2      3.35678      2.98935      4.68910        -0.037910      0.325414      0.421161
19   2      0.21624      2.89588      6.96922        -0.392555      0.338594      0.198269
20   2      2.76465      4.50594      7.24715        -0.185122     -0.573335      0.035577
21   2      1.68235      2.87411      9.46034         0.213052      0.328930      0.364552
22   2      4.53828      4.28619      9.79826        -0.789086      0.279972     -0.131532
23   2      0.78092      4.20066     12.09910         0.298985      0.346537     -0.223482
24   2      3.57670      3.01979     12.35150        -0.482281      0.073326     -0.407621
25   2     15.26000      5.84859     29.54380        -0.394549      0.310222      0.192122
26   2      2.48034      7.22266     29.49980        -0.514242      0.432550      0.291327
27   2      1.57371      5.81771      2.34364         0.293337      0.758921     -0.698836
28   2      4.12174      7.23479      2.41461         0.176181      0.021645     -0.292659
29   2      0.76136      7.22515      4.76283         0.371747      0.547055     -0.151714
30   2      3.44891      6.03766      4.86188        -0.002963     -0.640707     -0.194185
31   2      0.06024      5.83800      7.25946        -0.105565     -1.260440      0.001156
32   2      2.64588      7.22723      7.27406        -0.285184      0.917349     -0.261472
33   2      1.71279      5.86304      9.70227        -0.082432     -0.552568      0.015358
34   2      4.34491      7.25458      9.50407         0.306706      0.004803      0.586119
35   2      0.99683      7.38573     12.10650        -0.468728      0.013735      0.122465
36   2      3.45594      6.03963     12.01230         0.164955     -0.700833      0.091675
37   2      0.01274      8.87412     29.57920         0.158411     -0.615398      0.323621
38   2      2.66826     10.31870     29.72770        -0.168612     -0.481976     -0.284097
39   2      1.83041      8.87006      2.25919        -1.027213     -0.316452      0.242679
40   2      4.12236     10.40790      2.39062         0.643996     -0.132099      0.052582
41   2      0.59417     10.39220      4.77637         1.140765     -0.751774     -0.449520
42   2      3.38451      8.86982      4.74142        -0.174665      0.220206      0.134433
43   2      0.02435      8.46839      7.25871         0.184217      1.481426      0.084447
44   2      2.51761     10.35180      6.98746         0.156125     -0.809648      0.376802
45   2      1.74115      8.69901      9.65621        -0.163233      0.443589     -0.234783
46   2      4.13367     10.23180      9.48007         0.707766     -0.451544      0.150611
47   2      0.89083     10.52870     12.07520        -0.462917     -0.402486     -0.031072
48   2      3.51539      8.83574     11.99320        -0.260869      0.385863      0.068850
49   2      0.05014     11.67840     29.67670         0.032200      0.126067     -0.127452
50   2      2.56746     13.03440     29.66480         0.117144      0.753755      0.252667
51   2      1.71646     11.86190      2.45654        -0.405965     -0.236026     -0.181391
52   2      4.23632     13.31460      2.52864        -0.522817      0.505595     -0.128109
53   2      0.91087     13.29080      4.79053        -0.584006     -0.167502     -0.075183
54   2      3.40856     11.91400      4.86765         0.174996     -0.330946     -0.318907
55   2      0.12114     11.63770      7.25869        -0.314479      0.275667     -0.248239
56   2      2.58624     13.42830      7.16474         0.183642     -0.298453      0.650009
57   2      1.94615     11.70110      9.54051        -0.852315      0.594431      0.122675
58   2      4.26656     13.44110      9.66685        -0.211584     -0.474098      0.110120
59   2      0.66855     13.45140     12.17630         0.151926     -0.301715     -0.141061
60   2      3.27941     11.80330     12.15910         0.269749      0.660385     -0.115271
61   2      5.11328     14.68477      0.21482        -0.280211      0.160741     -0.417184
62   2      7.67297      1.36045     29.78660        -0.158437      0.648848     -0.340372
63   2      6.85636      0.21221      2.44213        -0.018350      0.127538     -0.197115
64   2      9.32921      1.57230      2.30948        -0.176244      0.022362      0.443182
65   2      5.93618      1.71429      5.05034        -0.058867     -0.102553     -1.984943
66   2      8.80277      0.15981      4.90066        -0.215082     -0.517915     -1.365976
67   2      5.31973      0.10293      7.12301        -0.521074     -0.561136      0.978403
68   2      7.82929      1.50354      7.02439         0.005201     -0.037279      1.732031
69   2      6.98839     14.58439      9.41710        -0.478582      0.883762      0.237029
70   2      9.36306      1.56990      9.65976         0.251495     -0.425335     -0.439327
71   2      5.95694      1.54584     12.21360        -0.240659     -0.362530      0.147352
72   2      8.38497      0.01066     11.89300         0.080444     -0.385498      0.309152
73   2      4.89185      2.96959      0.07612         0.153569     -0.680920     -0.385679
74   2      7.91728      4.38872     29.78450        -0.292051     -0.387725      0.130042
75   2      6.77629      3.03675      2.31560         0.404100     -0.185396      0.233673
76   2      9.42132      4.50618      2.56666        -1.123117     -0.252134     -0.378696
77   2      6.08072      4.47194      4.86508        -0.063384      0.538600     -0.283673
78   2      8.59095      3.04792      4.89625         0.337466      0.095361     -0.894357
79   2      5.42515      3.09897      7.28898        -0.430109      0.066708      1.136733
80   2      7.99529      4.42601      7.22893        -0.399915      0.693601      0.483402
81   2      6.90581      2.96865      9.99742        -0.147415     -0.090869     -1.249568
82   2      9.62062      4.43316      9.84910        -0.192678      0.385515     -0.307790
83   2      6.00571      4.59317     12.34710         0.027877     -0.000073     -0.184435
84   2      8.55057      2.80440     12.08260         0.358922      0.637295      1.011317
85   2      4.78262      5.68554     29.71410         0.631686      0.465873      0.053718
86   2      7.43639      7.13434      0.06452        -0.165902      0.399927     -0.432732
87   2      6.76087      5.91076      2.45982        -0.081509     -0.291056     -0.059669
88   2      9.24215      7.39870      2.24205         0.018072      0.155011      0.451129
89   2      5.99435      7.49166      4.66124        -0.378073     -0.265150      0.649426
90   2      8.64565      6.14469      4.79475        -0.163480     -0.250745      0.166418
91   2      5.28941      5.88479      7.21736         0.280784      0.150396     -0.061985
92   2      7.73209      7.54579      7.06400         0.291529     -0.405644      0.451432
93   2      7.02831      5.88109      9.58636        -0.815649     -0.450663     -0.032294
94   2      9.15960      7.42724      9.72872         1.118484      0.268675     -0.069153
95   2      5.97126      7.50373     12.24450         0.103127      0.065855     -0.299493
96   2      8.42573      6.11734     12.26980         0.390451     -0.190391     -0.252959
97   2      4.95052      8.60356     29.73250         0.225322      0.186924      0.208302
98   2      7.91367     10.49570     29.72360        -0.965116     -0.043936     -0.445488
99   2      6.62483      8.91299      2.35008        -0.092830      0.207401     -0.713423
100   2      9.22552     10.21120      2.24778         0.463098      0.407141      0.485593
101   2      5.91745     10.56630      4.76428        -0.360755     -0.232097      0.454733
102   2      8.35060      8.99586      4.64198         0.606857     -0.147784      0.237943
103   2      5.17505      8.77101      7.16632        -0.346193      0.485482     -0.548595
104   2      7.86336     10.40420      7.17840        -0.371848     -0.046686      0.030130
105   2      6.73333      8.99183      9.50906        -0.030501     -0.402570      0.368833
106   2      9.27641     10.25280      9.68571         0.310111      0.395658     -0.026088
107   2      5.77775     10.57060     11.96020         0.417016     -0.500196      0.137142
108   2      8.40323      9.05219     12.22520        -0.205750     -0.456289     -0.170000
109   2      5.30464     11.74080     29.78960        -0.442657     -0.150600     -0.489136
110   2      7.65550     13.40240     29.47330         0.236818     -0.533712      0.263364
111   2      6.60228     11.92550      2.36948         0.859100     -0.257710      0.163745
112   2      9.13201     13.17420      2.30970         0.320202      0.185331     -0.261068
113   2      6.19123     13.67280      4.67119        -0.245763     -0.832295      0.624313
114   2      8.44812     11.81930      4.77709         0.410627      0.293923     -0.414777
115   2      4.96249     11.84190      7.27763         0.206981      0.035152     -0.779810
116   2      7.72149     13.18520      7.09539         0.125651      0.264873     -0.011379
117   2      6.55832     11.83000      9.45828         0.810937     -0.212933      0.567860
118   2      9.36121     13.18070      9.46432         0.444114     -0.219941     -0.129666
119   2      5.93627     13.35990     12.17260        -0.288632      0.172293     -0.147047
120   2      8.41472     11.82790     12.08490        -0.069026      0.310269     -0.232624
121   2     10.23240      0.00574     29.27730         0.100180     -0.767115      0.298683
122   2     12.81790      1.56894     29.40430        -0.148399     -0.703708      0.221478
123   2     11.64640      0.05240      2.04822         0.374628     -0.344737     -0.009726
124   2     14.21870      1.39996      2.29358        -0.075755      0.115405      0.000404
125   2     11.32380      1.50068      4.63785        -1.116257      0.460199     -0.202781
126   2     13.49760     14.72035      4.80515         0.937446     -0.698816     -0.144937
127   2     10.34660      0.11265      7.12468         0.465830     -0.622944      0.607270
128   2     12.85970      1.56524      7.17378         0.419644     -0.251452     -0.111218
129   2     11.93700      0.04214      9.59490        -0.211706     -0.181409     -0.103550
130   2     14.53090      1.22025      9.66032         0.175241      0.479406     -0.101326
131   2     10.99010      1.34247     12.17100        -0.203912      0.544927     -0.057717
132   2     13.40030      0.05475     12.22110         0.620328     -0.398251     -0.251652
133   2     10.19350      2.70482     29.44390        -0.071491      0.714505     -0.087848
134   2     12.75790      4.31920     29.35990        -0.022355      0.361554      0.274266
135   2     11.68570      3.06615      2.02746         1.024940     -0.203025      0.355635
136   2     14.31100      4.43972      2.22803        -0.373757     -0.114395     -0.122854
137   2     11.04930      4.51598      4.85730         0.303210     -0.382059      0.257593
138   2     13.62090      2.98964      4.73648         0.298026      0.188889     -0.168266
139   2     10.33050      2.93552      7.36508         0.334137      0.284328     -0.220968
140   2     12.81770      4.50881      7.17784         0.428364     -0.233111     -0.008293
141   2     12.21450      2.89300      9.58411        -1.266209     -0.019006     -0.598938
142   2     14.53270      4.33480      9.63631         0.836491      0.222542     -0.279598
143   2     10.96900      4.32197     12.31290         0.026267      0.354008     -0.171398
144   2     13.41440      2.93315     11.93910         0.759292     -0.045083      1.090532
145   2     10.24160      5.94347     29.75560        -0.449271     -0.887804     -0.396860
146   2     12.59800      7.17308     29.47690         0.918621      0.543493      0.268720
147   2     11.70500      5.97257      2.39198         1.117306      0.036130      0.059993
148   2     14.37020      7.36367      2.33383         0.194625      0.182026     -0.251890
149   2     11.19990      7.42191      4.91095        -0.531633      0.109424     -0.045853
150   2     13.61590      5.87611      4.74486         0.088719     -0.134399      0.027005
151   2     10.41290      5.99056      7.37025        -1.028432     -0.157680      0.160711
152   2     12.70210      7.43141      7.36277         0.727769      0.058026      0.045444
153   2     12.17780      5.85418      9.73907        -0.644589     -0.031648      0.071495
154   2     14.44120      7.56095      9.89777         0.742395     -0.597190     -0.386692
155   2     11.19370      7.44678     11.95800        -0.472203     -0.601869      0.485896
156   2     13.70100      5.84114     12.16940         0.059653      0.088514      0.008850
157   2     10.05570      8.68931     29.57490         0.338744      0.498271      0.055172
158   2     12.82180     10.16240     29.63290        -0.500202     -0.096293     -0.306790
159   2     11.87280      8.78619      2.42827        -0.051718     -0.162343     -0.283664
160   2     14.30720     10.37600      2.16508         0.835100     -0.552613      0.793251
161   2     10.97670     10.28770      4.70507         0.053079      0.088643      0.055950
162   2     13.62340      8.80711      4.88198         0.095156     -0.087727     -0.216483
163   2     10.30320      8.99923      7.30067         0.051671     -0.225981     -0.000195
164   2     12.95450     10.27480      7.32762        -0.229101      0.140609     -0.018217
165   2     12.05860      8.87977      9.81600        -0.677673      0.532542     -0.657766
166   2     14.57830     10.42950      9.69597         0.137133     -0.239743      0.102014
167   2     10.93690     10.30830     12.09860         0.246128      0.330787     -0.058361
168   2     13.70500      8.93414     12.24980         0.139894      0.128097      0.090328
169   2     10.33400     11.78360     29.57400         0.121746      0.274168     -0.030405
170   2     12.79330     13.24710     29.56550        -1.043992     -0.458488      0.184412
171   2     11.80810     11.58470      2.19617        -0.166338      0.778652      0.153202
172   2     14.42370     13.20530      2.33683        -0.428533      0.077741      0.374121
173   2     11.05110     13.25200      4.41998         0.312701     -0.208958      0.310891
174   2     13.58680     11.65670      4.83520        -0.822306      0.962882     -0.167148
175   2     10.52680     11.87770      7.01028        -0.245085      0.284268      0.246344
176   2     12.96650     13.31150      7.35877        -0.305445     -0.097308     -0.472085
177   2     11.95990     11.80240      9.68173        -0.174679      0.030808     -0.317505
178   2     14.79370     13.22640      9.49503        -0.266429     -0.140152      0.608354
179   2     10.90800     13.33780     11.88420         0.111565     -0.489917      0.297977
180   2     13.53700     11.83770     12.07020         0.078290      0.152156      0.071231
