ITEM: TIMESTEP
0
ITEM: NUMBER OF ATOMS
144
ITEM: BOX BOUNDS pp pp pp
0.0 12.4883307881 
0.0 12.4883307881
0.0 35.7286733738
ITEM: ATOMS id type x y z fx fy fz
1   2      0.10277      0.20344     35.19190         0.074456     -0.292687      0.568837
2   2      2.17128      2.20917     35.42760        -0.504651      0.108807     -0.178665
3   2      2.28275     12.41673      1.69340        -1.220500     -0.335265     -0.460687
4   2      0.09822      2.13594      1.74603        -0.122808      0.181913      0.098486
5   2      0.09159      0.03407      3.80669         0.224477     -0.071826      0.318379
6   2      2.27353      2.02587      3.54252        -0.549474      0.721105      0.882347
7   2      1.95035      0.20586      6.08793        -0.120142     -0.240566     -0.037314
8   2     12.41180      2.09381      6.56098        -0.529530     -0.655879     -1.247098
9   2      0.03287     12.31370      8.29207         0.052842      0.420055      0.116947
10   2      2.07664      2.20617      8.38316         0.011898     -0.874910     -0.350186
11   2      1.98190      0.22159     10.64100         0.675377     -0.631760     -0.433057
12   2     12.37380      2.04558     10.34530         0.171257     -0.111764      0.164906
13   2     12.45670      0.08167     12.41210        -0.323354     -0.089067      0.855846
14   2      2.06221      2.37889     12.66640        -0.248613     -0.515104      0.400323
15   2      1.88791     12.47460     14.74190         0.140368      0.384247     -0.283938
16   2     12.41493      2.28212     14.77530         0.306532     -0.383162      0.026795
17   2     12.45109      4.29042     35.63230         0.405915     -0.142915      0.007309
18   2      2.04293      6.49279     35.55840        -0.327278     -0.550724      0.031849
19   2      2.07017      4.40956      1.93531         0.228343     -0.669394     -0.259094
20   2      0.18966      6.34426      2.22631        -0.630808     -0.043582     -0.721623
21   2     12.44493      4.24455      4.24965         0.294713     -0.663987     -0.559494
22   2      2.40689      6.23790      4.14985        -0.464574      0.455180      0.235105
23   2      2.06490      3.94104      6.07243         0.042500      0.617913     -0.079164
24   2      0.20377      6.28762      6.10313        -0.137531      0.041882      0.868648
25   2      0.06047      4.16347      8.23190        -0.709816      0.994647      0.134635
26   2      2.11647      6.18750      8.30662         0.401247      0.676344     -0.483713
27   2      2.00842      4.34180     10.29520         0.031252     -0.620410      1.263620
28   2     12.47920      6.17091     10.37430        -0.375083      0.435750      0.289599
29   2     12.45640      4.21848     12.83490        -0.225740      0.336793     -0.505964
30   2      1.96297      6.23976     12.79290        -0.553363     -0.637148      0.165462
31   2      2.36836      4.31281     15.10500        -0.072052      0.184780     -0.586646
32   2     12.35790      5.91001     15.16850         0.118954      0.198149     -0.666455
33   2     12.45995      8.29044     35.51070        -0.342794     -0.745776     -0.286469
34   2      2.02689     10.23230     35.24510        -0.152718      0.614149      0.397735
35   2      2.21220      8.33558      2.07416         0.848569     -0.028010     -0.645109
36   2      0.13558     10.13400      1.74873        -0.005951      1.003588      0.560210
37   2      0.49177      8.35196      4.13401        -0.883634      0.491176      0.536670
38   2      2.34740     10.59170      4.06956        -0.940192     -0.782074      0.129436
39   2      2.33226      8.28282      6.26119         0.102350      0.350400      0.597361
40   2      0.02177     10.35350      6.13819         0.372554      0.250483      0.335828
41   2      0.17177      8.32866      8.47861        -0.139637      0.104739     -0.386036
42   2      2.14998     10.53240      8.64768         0.352171     -0.160771     -0.193780
43   2      2.18275      8.38689     10.69810        -0.560540      0.338427     -0.232399
44   2      0.00392     10.35000     10.54620        -0.008036     -0.055705      0.076689
45   2     12.17160      8.07030     12.53910         0.662122     -0.053408     -0.063645
46   2      2.37421     10.44320     12.81600        -0.419540     -0.408572     -0.402732
47   2      1.76930      8.38537     14.78010        -0.171572     -0.284295     -0.101875
48   2     12.42020     10.43620     14.47360         0.299403      0.074101      0.414538
49   2      4.13908      0.04027     35.43330         0.238686     -0.234657     -0.602454
50   2      6.35657      1.89877     35.34540         0.367229      0.095931      0.176314
51   2      6.19881      0.02117      1.68541         0.799680     -0.504846     -0.069091
52   2      4.20649      2.27881      1.49882        -0.364587     -0.096708     -0.385292
53   2      4.11073      0.02305      3.75924         0.461809      0.107681      0.635873
54   2      5.87516      2.01605      3.60466         1.257995      0.530850      1.150707
55   2      6.09969      0.00447      6.01847         0.678920      0.500488     -0.365440
56   2      4.04048      2.10011      6.02326         0.729248     -0.199337      0.069181
57   2      4.21321      0.22101      8.54995        -0.206235     -0.327509     -0.343425
58   2      6.43557      2.03958      8.01086        -0.724215      0.784155      0.234172
59   2      6.40842      0.29754     10.35070        -0.333890      0.091007      0.645072
60   2      3.93573      2.22444     10.46800         0.609854     -0.564483      0.897246
61   2      4.11867      0.01827     12.71330         0.119621      0.086154      0.133580
62   2      6.11338      1.84974     12.75640        -0.132478      0.582595      0.144732
63   2      6.37223     12.38320     15.03450        -0.574316     -0.241809     -0.241682
64   2      4.22319      2.17679     15.00900         0.046126     -0.089761     -0.607471
65   2      4.03235      4.49625     35.40100         0.057180     -0.186842     -0.099780
66   2      6.27170      6.26826     35.20704         0.016705      0.117106      0.713192
67   2      6.13609      4.17265      1.73747         0.728703      0.514940     -0.252611
68   2      4.31730      6.32684      1.81477         0.012197      0.417758      0.081481
69   2      4.20481      4.32972      3.97618         0.158307     -1.319589      0.000747
70   2      6.22282      6.18473      4.14373         0.433991      1.037036     -0.442905
71   2      6.37492      4.15013      6.01687        -0.093961     -0.776360      0.660008
72   2      4.36323      6.06532      6.37560        -0.525946      0.282863      0.210316
73   2      4.22821      4.02537      8.44233         0.492500      0.673060     -0.924136
74   2      6.41431      6.13178      8.38356        -0.055313     -0.024187      0.248698
75   2      6.12350      4.02539     10.52900         0.630019      0.003090     -0.229931
76   2      4.03155      6.28403     10.62200         0.261391     -0.509455     -0.923824
77   2      4.20383      4.08976     12.64100         0.009422      0.243584      0.575575
78   2      6.14344      6.15107     12.49860        -0.500877      0.650878      0.264935
79   2      5.89333      4.96533     15.21820         0.141114     -0.122191     -0.517474
80   2      3.97987      6.87667     15.53000        -0.569651     -0.352449     -0.302388
81   2      4.03819      8.32750     35.35470         0.746513     -0.190719     -0.004789
82   2      6.32468     10.30510     35.49190         0.299011      0.143976      0.126598
83   2      6.26817      8.43374      1.99012         0.203644     -0.372584     -0.201642
84   2      4.17620     10.30180      1.59239        -0.140595      0.266070      0.199533
85   2      4.30573      8.44108      4.22127        -0.262147     -0.598823     -0.023842
86   2      5.96637     10.49770      3.84736         1.197321      0.460578      0.371873
87   2      6.09799      8.38189      6.48379         0.155258     -0.384706     -1.082034
88   2      4.07334     10.80200      6.41929        -0.576046     -0.875583      0.049738
89   2      4.18700      8.45284      8.49177        -0.576853     -0.483293      0.270043
90   2      6.20047     10.38300      8.37114        -0.467939      0.389843     -0.298620
91   2      6.24874      8.26132     10.62110         0.205103     -0.257358     -0.155301
92   2      4.56550     10.49010     10.64720        -0.672875      0.367660      0.422879
93   2      4.02728      7.95755     12.76300         0.352439      1.000846      0.790028
94   2      6.03861      9.89105     13.10150         0.233786      0.816264     -0.655179
95   2      6.23495      8.31008     15.26920         0.424976     -0.494484      0.213834
96   2      4.02663     10.16860     15.14520         0.042579      0.064080     -0.330928
97   2      8.73262     12.43860     35.42450        -0.637183     -0.091240      0.369963
98   2     10.44020      2.13760     35.37270         0.459033      0.057219      0.255496
99   2     10.64770      0.10547      1.79018        -0.265726     -0.252713      0.058843
100   2      8.42770      2.19295      2.02188        -0.016951     -1.328167     -0.355068
101   2      8.38261     12.46200      4.06146        -0.151561      0.233682     -0.335350
102   2     10.58700      2.14679      4.06384        -0.018083     -0.561021     -0.278753
103   2     10.24350     12.33050      6.25127         0.479088      0.044344     -0.270208
104   2      8.42267      2.03519      6.03292        -0.616819     -0.413412     -0.144930
105   2      8.06879     12.36410      8.20458         1.205663     -0.150696     -0.405058
106   2     10.20390      1.89902      8.37944         0.070058     -0.114591      0.012700
107   2     10.18330     12.48349     10.48710         0.001220     -0.336618      0.273292
108   2      8.51516      2.24613     10.98180        -0.671329     -0.004543     -0.538769
109   2      7.98843     12.30864     12.75810         0.702133     -0.521361     -0.253816
110   2     10.40270      1.96301     12.86680         0.147887     -0.100161      0.393415
111   2     10.18400     12.19622     14.81770        -0.110190      0.344286     -0.406704
112   2      8.11534      2.02904     15.04380         0.222168     -0.044596     -0.575121
113   2      8.37997      3.95997     35.66230        -0.302471      0.606304     -0.422649
114   2     10.38600      6.02851     35.32570        -0.294926      0.572328      0.390614
115   2     10.42000      4.36808      1.97740         0.198486     -0.112563      0.139970
116   2      8.17771      6.28790      1.92248        -0.337844     -0.608627     -0.059375
117   2      8.22000      4.06934      3.89298         0.133000      0.607916      0.491910
118   2     10.58800      6.32939      4.13806        -0.564971     -0.293769     -0.091798
119   2     10.23050      4.02126      6.16759         0.648084      0.776736      0.456478
120   2      8.39389      6.17742      6.06509        -0.243677      0.221367     -0.108404
121   2      8.41886      4.04548      8.59962        -0.473425      0.180568     -0.477043
122   2     10.13720      6.59716      8.19723         1.303280     -1.724037     -0.091992
123   2     10.59940      4.07022     10.33860        -0.179737      0.410708      0.406969
124   2      8.46620      6.10316     10.56230        -1.363423     -0.493603     -0.963051
125   2      7.73392      4.15819     12.98600         0.753486     -0.921045      0.504369
126   2     10.14670      5.91571     12.58100         1.395590     -0.250441      0.527661
127   2      9.98359      4.10703     14.71570         0.620886     -0.397115      0.268987
128   2      8.54310      6.42854     14.91920        -0.916692     -0.312171      0.748598
129   2      8.36861      8.28014     35.61780        -0.125928      0.131831     -0.166767
130   2     10.62240     10.33580     35.53170        -0.395397      0.256120      0.077890
131   2     10.31010      8.00988      1.90782         0.778422      0.602949     -0.431758
132   2      8.61116     10.52530      2.05617        -0.318992     -0.045095     -0.490184
133   2      8.41111      8.38336      3.99472        -0.288863     -0.385249     -0.026953
134   2     10.79500     10.26490      3.91568        -0.462786      0.187236      0.000146
135   2     10.53780      8.28327      6.06538        -0.030538      0.668047      0.229726
136   2      8.20606     10.28740      5.91898        -0.040961      0.330705      0.414528
137   2      8.28556      8.43229      8.21387        -0.490846      0.753835      0.183584
138   2     10.47440     10.47150      8.38053        -0.407557     -0.642900      0.081265
139   2     10.25580      8.14776     10.42260         0.456874      1.247481      0.408740
140   2      8.07576     10.40510     10.35460         0.893525     -0.003930      0.930900
141   2      8.30821      7.93557     12.70720        -0.338649      1.606194     -0.273978
142   2     10.47910     10.36610     12.59730        -1.132669      0.007308     -0.595923
143   2     10.55820      8.25069     14.79200         0.128429      0.221686      0.040240
144   2      8.29712     10.11810     14.92730         0.190113      0.084186     -0.441165
