ITEM: TIMESTEP
0
ITEM: NUMBER OF ATOMS
144
ITEM: BOX BOUNDS pp pp pp
0.0 12.4883307881 
0.0 12.4883307881
0.0 35.7286733738
ITEM: ATOMS id type x y z fx fy fz
1   2      0.02494      0.05511     35.55542        -0.088158      0.162549     -0.186603
2   2      2.03189      2.36400     35.57907         0.088954     -0.260140     -0.206746
3   2      2.05738      0.11599      1.95207         0.475664     -0.209642     -0.048823
4   2      0.11026      2.14410      1.83374        -0.551726      0.085655      0.414703
5   2     12.42603      0.07749      3.95265        -0.149612      0.002470      0.584040
6   2      2.03220      2.17852      4.03671         0.026467     -0.444665      0.022175
7   2      2.06685      0.00898      6.23147        -0.050203     -0.476872     -0.414453
8   2      0.08356      2.08498      6.22054        -0.758978     -0.379639     -0.247340
9   2      0.06927     12.43011      8.34075        -0.235292     -0.012480      0.157408
10   2      2.22747      1.91104      8.26775        -0.532761      0.457770      0.398614
11   2      2.26773     12.18816     10.40200        -0.370327      0.502233      0.269110
12   2      0.11264      2.07275     10.62150        -0.173262     -0.232663     -0.230685
13   2      0.24212     12.20177     12.46040        -0.297120      0.471725      0.099339
14   2      2.22992      1.88863     12.60460        -0.120089      0.366888     -0.091189
15   2      2.32020     12.34188     14.65800        -0.245806     -0.502780      0.286215
16   2      0.44025      1.81960     14.85520        -0.259346      0.454633     -0.245258
17   2     12.32536      4.45792      0.04491         0.587368     -0.184256     -0.255028
18   2      2.27079      6.74307     35.57457        -0.226948     -0.265742     -0.120918
19   2      1.90462      4.37126      1.92111         0.092748      0.234548      0.343163
20   2      0.00142      6.61421      2.01478         0.361013     -0.861555     -0.284860
21   2     12.40658      4.11400      4.00280        -0.122523      0.244355      0.230368
22   2      1.98159      6.15991      4.10740        -0.238327      0.529201      0.057608
23   2      2.02289      4.08859      6.23011         0.230678      0.529772     -0.144073
24   2     12.41716      6.16376      6.36386         0.256035     -0.114614     -0.428558
25   2      0.17823      4.00209      8.33729        -0.678533     -0.230233      0.498698
26   2      1.93461      6.15929      8.51062         0.982295      0.197716     -0.851468
27   2      2.21600      4.08826     10.57260        -0.528500     -0.095672     -0.021035
28   2     12.48346      6.12345     10.38940        -0.794647     -0.170739      0.759077
29   2      0.10718      3.95077     12.83500         0.073519      0.320811     -0.013921
30   2      2.10655      6.10554     12.58600         0.019569     -0.071198     -0.072468
31   2      2.32520      4.17765     14.80880        -0.138762     -0.263296     -0.247535
32   2      0.07726      6.13986     14.76290        -0.233380     -0.230863     -0.192085
33   2     12.40503      8.56467     35.59544         0.181708     -0.372344     -0.296022
34   2      2.09951     10.46040     35.62400         0.232035      0.483386     -0.491814
35   2      2.15378      8.57326      1.89920        -0.276986     -0.308332      0.694776
36   2     12.43461     10.56310      1.79753        -0.195326      0.049783      0.689175
37   2     12.44632      8.42203      4.01819         0.321278      0.068689      0.526115
38   2      1.97193     10.53750      4.06724         0.095790     -0.145425      0.156740
39   2      1.86913      8.27286      6.28454         0.624468     -0.078562     -0.378123
40   2     12.38441     10.35020      6.22784         0.089516      0.514964     -0.420802
41   2     12.46436      8.42618      8.32827        -0.484971     -0.747301      0.165328
42   2      2.07899     10.28430      8.38262         0.182458      0.301348     -0.285112
43   2      1.98354      8.15223     10.49620         0.305228      0.269089      0.257234
44   2     12.35988     10.31050     10.36590         0.086988      0.058859      0.286806
45   2     12.45218      8.18489     12.62370        -0.026229     -0.100749     -0.593844
46   2      2.20945     10.14530     12.51690        -0.182582      0.400869     -0.283368
47   2      2.06845      8.13979     14.53640         0.260066     -0.001729      0.519708
48   2      0.14746     10.21750     14.59060        -0.082966      0.275845      0.247456
49   2      4.07443      0.30803     35.52242        -0.243252     -0.189734      0.208595
50   2      6.06496      2.31429     35.58044         0.280534      0.083319      0.205203
51   2      6.16757      0.14420      1.85440         0.117332      0.800921      0.926864
52   2      4.09491      2.21267      2.04575         0.199499     -0.257597      0.169567
53   2      4.20341     12.45654      4.21996        -0.661523      0.745987     -0.644640
54   2      6.52513      2.22494      3.87302        -0.813226     -0.380745      0.234914
55   2      6.29594      0.02665      6.17897        -0.265381      0.329844      0.435501
56   2      4.16077      2.11587      6.06878         0.021948     -0.536297      0.234361
57   2      4.22601     12.47906      8.29907         0.022518     -0.561197     -0.070259
58   2      6.13933      1.97325      8.44182         0.538765      0.243828     -0.379812
59   2      6.32268     12.39974     10.62720        -0.178440      0.110611     -0.383225
60   2      4.06951      2.02113     10.39450         0.150589     -0.385588      0.367973
61   2      4.22954     12.35453     12.65350        -0.104948     -0.051758     -0.281447
62   2      6.12159      1.94619     12.58020         0.303857      0.024590      0.427981
63   2      6.44883      0.03708     14.68720         0.002423     -0.111263      0.004606
64   2      4.25879      1.93292     14.75590        -0.087607      0.305752      0.036460
65   2      4.01188      4.36567      0.19005         0.094572      0.068921     -1.161043
66   2      6.26480      6.32445     35.46764        -0.440170      0.550657      0.034850
67   2      6.11131      4.49169      1.94662         0.423219     -0.580700      0.642327
68   2      4.11480      6.49623      1.97968         0.182886      0.371175      0.465441
69   2      4.05923      4.18278      4.14505         0.276995      0.095341     -0.572361
70   2      6.12290      6.26021      4.27119         0.140273      0.153880     -0.748992
71   2      6.10267      4.05513      6.20842         0.466756      0.253939      0.311435
72   2      4.03629      6.29578      6.09235        -0.364725     -0.069120      0.990041
73   2      4.09737      4.17702      8.25320        -0.051471     -0.078582      0.035235
74   2      6.21691      6.04699      8.42434         0.072814      0.270859     -0.300895
75   2      6.18941      3.89591     10.55440         0.402515      0.323506     -0.707949
76   2      4.26423      6.06127     10.49050        -0.451841      0.651635     -0.207291
77   2      4.30998      4.13770     12.65470        -0.614584     -0.068174      0.378944
78   2      6.39046      6.08672     12.28480        -0.324445      0.503494      1.222085
79   2      6.27371      4.04133     14.71240        -0.629268      0.643711      0.181615
80   2      4.23426      6.27226     14.73410         0.254485     -0.124879     -0.252052
81   2      4.47440      8.68128     35.37944        -0.570788     -0.624570      0.068211
82   2      6.18074     10.75590      0.00599         0.392076     -0.180437     -1.226016
83   2      6.28112      8.55893      1.82337        -0.363200     -0.351493      0.373252
84   2      4.14533     10.48790      1.95698        -0.018160      0.428994      0.358153
85   2      4.02090      8.42910      4.19124        -0.025381     -0.013713     -0.287356
86   2      6.07509     10.53310      4.20823         0.503443     -0.931012     -0.848513
87   2      6.13216      8.21479      6.34741        -0.224330     -0.109286     -0.264118
88   2      4.18848     10.38730      6.30117        -0.833249     -0.107042     -0.056573
89   2      4.06979      8.30071      8.49876         0.080321     -0.654277     -0.357298
90   2      6.19362     10.33500      8.23337         0.354033      0.268480      0.547838
91   2      6.39709      8.31054     10.38510        -0.450217     -0.340327     -0.082656
92   2      4.40716     10.34020     10.42150        -0.556765     -0.101096      0.147917
93   2      4.27406      8.26754     12.56120         0.166235     -0.750770     -0.397718
94   2      6.20093     10.39470     12.62900         0.596602     -0.245948      0.382904
95   2      6.25533      8.30015     14.74240         0.150832     -0.196486     -0.228654
96   2      4.14622     10.17540     14.63880         0.048045      0.219249      0.389376
97   2      8.35377      0.18325     35.51385         0.132601     -0.012333      0.189743
98   2     10.62370      2.27761     35.53368        -0.581019     -0.317134      0.097421
99   2     10.40400      0.21496      1.99236        -0.204890     -0.363871     -0.271084
100   2      8.34063      2.19069      1.79961        -0.265893     -0.196793     -0.284092
101   2      8.29050     12.32849      4.03719         0.298035      0.513641      0.070091
102   2     10.26660      2.23938      4.04785         0.035487     -0.537975      0.506870
103   2     10.33560      0.02938      6.22167         0.111166     -0.042686     -0.150053
104   2      8.22183      1.97002      6.29450         0.454507      0.243956      0.095119
105   2      8.27093     12.38119      8.56543         0.230470      0.242680     -0.535884
106   2     10.54300      1.98793      8.41300        -0.275507      0.125619      0.075181
107   2     10.38440     12.41467     10.56290         0.297525      0.298651     -0.187652
108   2      8.24604      1.98430     10.68670         0.741841      0.084021     -0.364683
109   2      8.52139     12.41359     12.70650         0.011257      0.248622      0.324584
110   2     10.57650      2.04101     12.83910        -0.198691     -0.187050     -0.155890
111   2     10.82530     12.44730     14.73360        -0.204682     -0.231525     -0.292168
112   2      8.31884      2.28168     14.77470         0.444452     -1.224436      0.429522
113   2      8.16649      4.36699     35.62687         0.310101     -0.424098      0.028219
114   2     10.35280      6.27177      0.17010        -0.489687      0.403557     -0.696148
115   2     10.20450      4.18357      2.03879         0.232922      0.417736      0.094556
116   2      8.15115      6.45884      2.00233         0.283954     -0.271384      0.240524
117   2      8.24331      4.32045      4.34089         0.115490     -0.211372     -0.904624
118   2     10.40390      6.21411      4.14285         0.098710      0.026684     -0.589099
119   2     10.29200      4.18796      6.28334         0.534739     -0.645913      0.084061
120   2      8.33483      6.29556      6.21936        -0.688402     -0.278375      0.277333
121   2      8.28956      4.03978      8.33387        -0.003860     -0.178714      0.292789
122   2     10.39820      6.14795      8.34801        -0.011974     -0.140026      0.358341
123   2     10.34530      4.03942     10.56990         0.112063     -0.083128     -0.089114
124   2      8.33322      6.19693     10.41550         0.526474     -0.476486     -0.371721
125   2      8.30688      4.02738     12.76710         0.513729      0.523838     -0.996247
126   2     10.45970      6.18490     12.51260         0.006981     -0.275177     -0.011666
127   2     10.41450      4.18033     14.86820         0.181489      0.229442     -0.411228
128   2      8.33271      6.28999     14.51950        -0.130739     -0.162407      0.238058
129   2      8.29948      8.36002     35.43984         0.105589      0.145780      0.283591
130   2     10.31560     10.49160     35.50306        -0.135123      0.197994      0.153378
131   2     10.35930      8.42266      1.92081        -0.499245      0.401648      0.236628
132   2      8.29052     10.53350      1.87809         0.445487     -0.028256      0.060473
133   2      8.08636      8.39219      4.02998         0.270000      0.154865      0.145177
134   2     10.38870     10.28220      4.08133        -0.337710      0.565248      0.054283
135   2     10.35310      8.12888      6.14512         0.392485      0.919923     -0.035918
136   2      8.13704     10.33960      6.18084         0.754670      0.138317     -0.149729
137   2      8.29564      8.28053      8.14453        -0.098891      0.001669      0.725393
138   2     10.30130     10.32530      8.17994        -0.054655      0.415265      0.153262
139   2     10.21850      8.27443     10.27770         0.693158     -0.051742      0.372458
140   2      8.30994     10.31490     10.55770         0.191870      0.431044     -0.254761
141   2      8.31147      8.32685     12.55880         0.075721     -0.195679      0.213293
142   2     10.47470     10.28920     12.61150         0.024958      0.067780      0.039076
143   2     10.43820      8.20667     14.67560        -0.037005      0.072586     -0.061363
144   2      8.35245     10.33130     14.64810         0.088963     -0.002275      0.039191
