ITEM: TIMESTEP
0
ITEM: NUMBER OF ATOMS
180
ITEM: BOX BOUNDS pp pp pp
0.0 15.336255 
0.0 14.75731
0.0 29.7984842388
ITEM: ATOMS id type x y z fx fy fz
1   2     15.31190     14.67772     29.64170         0.040400      0.055917      0.221424
2   2      2.44937      1.68231     29.55560        -0.252360     -0.541594      0.349599
3   2      1.69301      0.10916      2.27481         0.131739      0.081985     -0.287761
4   2      4.33991      1.49701      2.42846        -0.435974     -0.099804      0.094994
5   2      0.85931      1.32004      4.80053        -0.559482      1.236682     -0.242690
6   2      3.23671      0.12492      4.80340         0.810449     -0.709495     -0.508420
7   2      0.13015     14.65556      7.11945         0.376096      0.164074      0.303301
8   2      2.62034      1.51659      7.19316        -0.614664     -0.112364     -0.073415
9   2      1.63711     14.75249      9.69691         0.220142     -0.231071     -0.319687
10   2      4.29302      1.31125      9.46443         0.340619     -0.134366      0.499487
11   2      0.72352      1.43433     12.03020         0.419449     -0.211748      0.022033
12   2      3.33405     14.48116     11.97080         0.214164      0.591369      0.028218
13   2     15.25460      3.08760     29.65500        -0.081196     -0.104501     -0.130992
14   2      2.41386      4.53027     29.72250         0.319870     -0.015739     -0.503815
15   2      1.59355      3.14569      2.38748         0.188185     -0.755897      0.297646
16   2      4.27369      4.44635      2.35802         0.229926      0.082866      0.170641
17   2      0.80212      4.45856      4.97598         0.302749     -0.258658     -0.374156
18   2      3.37399      2.98495      4.75904        -0.270909      0.072797     -0.054611
19   2      0.03894      3.01278      7.35833         0.620842     -0.052310     -0.288865
20   2      2.61755      4.48908      7.27824        -0.356105      0.053742     -0.548704
21   2      1.78102      2.82456      9.53251        -0.182492     -0.207110      0.101969
22   2      4.11340      4.43230      9.58484         0.754255      0.171612      0.404476
23   2      1.12423      4.22153     11.79980        -0.261139      0.278102      0.891904
24   2      3.51723      2.60669     11.93210         0.010035     -0.068507      0.030915
25   2     15.29890      6.02919     29.48260        -0.188443      0.097794      0.295749
26   2      2.52053      7.46826      0.05042         0.191628     -0.155697     -0.861010
27   2      1.86943      5.89117      2.28299        -0.480785      0.658191      0.844841
28   2      4.42339      7.48346      2.49347        -0.447001     -0.365627     -0.532450
29   2      0.79206      7.37658      4.71616         0.331242      0.113988     -0.406901
30   2      3.51935      5.84031      4.80621        -0.765536      0.018902     -0.228014
31   2      0.09765      6.20784      7.20323         0.045004     -0.656705      0.384263
32   2      2.78404      7.49472      7.20615        -0.838523     -0.647889      0.344991
33   2      1.60137      5.81178      9.63565         0.204586      0.476173     -0.625442
34   2      4.44207      7.42527      9.71197        -0.360274     -0.220886     -0.422294
35   2      1.00968      7.22532     11.95660        -0.179964     -0.158729      0.275298
36   2      3.61704      6.16086     12.10120        -0.001916     -0.508671     -0.106913
37   2     15.08020      8.94560     29.66890         0.430401     -0.469582     -0.167725
38   2      2.57435     10.40140     29.59430        -0.092161      0.068245      0.229234
39   2      1.84975      8.83417      2.29509        -0.582584     -0.038310      0.536965
40   2      4.18138     10.47390      2.42826         0.659362     -0.311713     -0.355880
41   2      0.80612     10.39140      4.81381         0.258122      0.051107     -0.181119
42   2      3.36247      8.75407      4.78116         0.037297      0.534697      0.042473
43   2     15.31460      8.95263      7.02742        -0.010334     -0.045668      0.650843
44   2      2.60165     10.33640      7.28755        -0.402765      0.227586     -0.707037
45   2      1.72854      8.83382      9.57745         0.096674      0.009063      0.154887
46   2      4.28157     10.35240      9.48517         0.400743     -0.085610      0.391013
47   2      0.65304      9.92238     12.33810         1.162693      0.649024     -0.253608
48   2      3.55512      8.99898     12.11200        -0.386696     -0.170046     -0.178133
49   2     15.20710     11.67150     29.79190         0.240803      0.753727     -0.265392
50   2      2.55764     13.36020     29.73730        -0.275545      0.088222      0.035100
51   2      1.62872     11.62060      2.32852        -0.157427      0.619415     -0.358478
52   2      4.25838     13.39910      2.31669        -0.171338     -0.044484     -0.228533
53   2      0.78748     13.25990      4.48824         0.423793     -0.415395      0.546747
54   2      3.32623     11.85860      4.66731        -0.351854     -0.250264      0.453904
55   2     15.21880     11.78630      7.31908         0.375831      0.142135     -0.389380
56   2      2.61278     13.19950      7.12402        -0.209270      0.027678      0.115131
57   2      1.80719     11.91600      9.60088        -0.313020     -0.244259     -0.456386
58   2      4.56248     13.21630      9.52740        -0.691528      0.447524     -0.108440
59   2      0.80988     12.87340     12.17440         0.150352      0.277836      0.120268
60   2      3.38384     11.77790     11.82480         0.443427     -0.411755      0.691742
61   2      5.10194      0.17660     29.63000        -0.372503     -0.263224      0.087276
62   2      7.64039      1.36280     29.71380         0.087496      0.971050     -0.039242
63   2      6.87539      0.02089      2.39799        -0.294543     -0.114792      0.166136
64   2      9.41311      1.53408      2.31521         0.116738     -0.158820     -0.223726
65   2      5.95837      1.43866      4.98387         0.546472     -0.091428     -1.772144
66   2      8.56585      0.24483      4.74324        -0.280378     -0.501331      0.136554
67   2      5.04677     14.73994      7.00650         0.074347     -0.918386      1.159358
68   2      7.88451      1.40368      7.19659        -0.276615     -0.159598     -0.003769
69   2      7.05662      0.00173      9.57599        -0.759755      0.503513      0.240232
70   2      9.52016      1.49048      9.52661         0.091479     -0.128977      0.371412
71   2      6.08193      1.14683     12.11600        -0.119518      0.471728     -0.319123
72   2      8.86414     14.70935     12.06130        -0.823964     -0.119514      0.180815
73   2      4.90163      2.96986      0.02032         0.443462      0.356958     -0.372319
74   2      7.42608      4.53336     29.58990         0.409276     -0.171733      0.416369
75   2      6.76216      2.92716      2.32145         0.246916      0.335446      0.028171
76   2      9.50136      4.32702      2.36562        -0.159729      0.755507     -0.236003
77   2      5.96614      4.26730      5.01200         0.240827      0.327848     -1.447078
78   2      8.55677      3.04434      4.58940         0.008350     -0.213788      0.423043
79   2      5.18869      2.79995      7.17137        -0.512437      0.604280      1.029022
80   2      7.78934      4.16425      7.09039        -0.019236      0.804561      0.333587
81   2      6.74282      2.94646      9.50566         0.041589     -0.426180      0.269468
82   2      9.40539      4.36447      9.39982         0.199118     -0.039550      0.453885
83   2      5.86066      4.22968     11.95820        -0.016800      0.074875      0.088594
84   2      8.43538      2.84383     11.86200        -0.055643      0.119896      0.185147
85   2      5.04427      5.91615     29.44270        -0.207083      0.270719      0.537927
86   2      7.60289      7.68102      0.00342        -0.594698     -0.568253     -0.130775
87   2      6.80080      5.88046      2.39019         0.223928     -0.329164     -0.153727
88   2      9.33602      7.29266      2.25426        -0.128988      0.372553      0.353501
89   2      6.01463      7.15893      4.81710         0.360392      0.512508     -0.069437
90   2      8.74014      5.86462      4.84222        -1.170193     -0.193179     -0.505789
91   2      5.14458      5.84754      7.13959        -0.292812     -0.207232      1.139890
92   2      7.53223      7.16310      7.23056         0.559121      0.248763      0.318830
93   2      6.89972      5.74513      9.75199        -0.615312      0.162592     -0.551412
94   2      9.26301      7.31163      9.81351         0.724983     -0.090097     -0.519919
95   2      6.14018      7.52563     12.11790        -0.408583     -0.435942      0.331389
96   2      8.47432      5.83793     12.07750        -0.274255      0.043008      0.434064
97   2      5.02101      8.91087     29.74810         0.179232      0.154032      0.101545
98   2      7.71986     10.60870     29.66040        -0.908669     -0.287972     -0.019081
99   2      6.80571      8.85863      2.54560         0.143042      0.075118     -0.538332
100   2      9.20942     10.38740      2.55076         0.291020     -0.043749     -0.455415
101   2      6.05690     10.26290      4.80981        -0.226305     -0.290596     -0.242360
102   2      8.53481      8.71117      4.84320        -0.378547      0.384059      0.318060
103   2      5.12952      8.88014      7.21423         0.391574     -0.204620     -0.123828
104   2      7.66723     10.06150      7.31828         0.091140      0.546493     -0.117665
105   2      6.93285      8.73523      9.74642        -0.352490      0.540890     -0.522964
106   2      9.27980     10.37690     10.01210         0.307396     -0.275940     -1.269928
107   2      6.00171     10.46510     11.87960         0.096687      0.103251      0.227235
108   2      8.48257      8.97235     12.31610         0.278970     -0.320082      0.113162
109   2      5.03166     12.03650     29.55720         0.239076     -0.406933      0.261897
110   2      7.58669     13.40010     29.61310         0.103209     -0.412604      0.113512
111   2      6.76997     11.78980      2.28444        -0.309060      0.288723      0.043006
112   2      9.35806     13.37530      2.39473        -0.208727     -0.111281     -0.422524
113   2      5.74175     13.22930      4.68486         0.757064      0.506195     -0.377657
114   2      8.34967     11.93840      4.75260         0.145608      0.054062      0.446060
115   2      5.23517     11.74590      6.94137        -0.379714      0.169158      0.977663
116   2      7.63730     13.37080      7.12373         0.110301     -0.144960     -0.369902
117   2      6.91295     11.91980      9.45683         0.026671     -0.874977      0.161900
118   2      9.34394     13.24260      9.66358         0.774830      0.029370      0.014695
119   2      6.08912     13.21020     12.46090        -0.022447     -0.167731     -0.491225
120   2      8.64550     11.80660     12.22610        -0.219733      0.548776      0.476076
121   2     10.15700      0.04670     29.68860         0.242846     -0.021320      0.076998
122   2     12.70160      1.54601      0.02022        -0.182831     -0.078197     -0.448982
123   2     11.95250      0.11974      2.50597        -0.228919     -0.010353     -0.814253
124   2     14.50830      1.51016      2.15807         0.417591     -0.207470      0.181941
125   2     11.18820      1.54845      4.72066        -0.188996      0.215340      0.257035
126   2     13.72640     14.62727      4.65212        -0.414673      0.660570      0.430983
127   2     10.47120     14.67466      7.33127        -0.244287      0.183939     -0.313618
128   2     13.02930      1.61372      7.03790        -0.589921     -0.917954      0.165927
129   2     12.01330     14.56874      9.77092        -0.393319      0.468360     -0.315604
130   2     14.38690      1.18462      9.54853         0.318791      0.662233     -0.056564
131   2     11.03260      1.60116     12.22400         0.647562      0.139519     -0.347223
132   2     13.72020     14.65309     12.11020        -0.155175      0.045239      0.243135
133   2     10.12050      3.05351     29.69650        -0.036611     -0.245079     -0.066977
134   2     12.68890      4.56721     29.69560         0.097570      0.083098     -0.198529
135   2     12.13380      3.18567      2.32220        -0.854786     -0.167001     -0.010807
136   2     14.50850      4.61430      2.20744         0.221836      0.288238      0.426292
137   2     11.18780      4.56308      4.86558         0.181520     -0.448022     -0.490045
138   2     13.73750      2.78218      4.51822         0.395829      0.561483      0.556030
139   2     10.33350      2.82802      7.07600         0.456366      0.278267      0.098822
140   2     12.94670      4.31694      7.01842        -0.291418      0.600594      0.650317
141   2     11.99190      2.87603      9.65682        -0.139347     -0.106349     -0.140279
142   2     14.38330      4.34875      9.68478         0.430461      0.177724     -0.225449
143   2     10.83860      4.48410     12.06370         0.616363     -0.303784     -0.162787
144   2     13.69950      2.95197     12.07550        -0.354119     -0.173845      0.062931
145   2     10.11110      5.89851     29.79620        -0.045078      0.058646     -0.381461
146   2     12.56920      7.55447     29.73930         0.005663     -0.012941     -0.220952
147   2     12.01300      6.22359      2.31064         0.003970     -0.469827      0.351055
148   2     14.58620      7.46311      2.23294         0.046933     -0.081779      0.390367
149   2     10.95920      7.45237      4.63214         1.149022      0.180530      0.488514
150   2     13.70120      5.89656      4.84660        -0.139704      0.357593     -0.796803
151   2     10.14820      5.99730      7.21815         0.332989     -0.066845      0.330592
152   2     12.69890      7.20242      7.17096         0.082579      0.550959     -0.010171
153   2     11.98180      5.80565      9.55279        -0.346743      0.171677      0.020472
154   2     14.49470      7.49185      9.66683        -0.141891     -0.670015     -0.341321
155   2     11.02450      7.36870     12.11350        -0.012301     -0.381080      0.074500
156   2     13.49040      5.80198     12.06630         0.102087      0.032199     -0.158483
157   2      9.96844      9.01483     29.65140         0.912233     -0.311486      0.215600
158   2     12.59140     10.40700     29.76250         0.053907      0.006477     -0.192482
159   2     11.82160      9.18981      2.50669        -0.127238     -0.627793     -0.406382
160   2     14.38730     10.31740      2.37243         0.194196      0.056894      0.265336
161   2     10.89050     10.39390      4.85727         0.132631      0.326725      0.487648
162   2     13.58630      9.01215      4.80110        -0.254925     -0.489517     -0.102294
163   2     10.16700      8.89230      7.43168        -0.255324     -0.245127     -0.460385
164   2     12.61010     10.25420      7.21906         0.255557      0.231039     -0.042887
165   2     11.77290      8.77118      9.64176         0.609262     -0.031405      0.131274
166   2     14.51570     10.24120      9.53918        -0.231037      0.174058      0.323653
167   2     11.16450     10.13170     12.10550         0.140445      0.652037      0.282975
168   2     13.65490      8.66799     12.10480        -0.741615     -0.425336      0.052362
169   2     10.18820     11.81170     29.72960         0.057098      0.703808     -0.003688
170   2     12.66830     13.38770     29.61270         0.078023     -0.017742      0.191790
171   2     11.85340     12.00560      2.35145        -0.340763     -0.231649      0.224163
172   2     14.32740     13.23180      2.28868         0.567549      0.142771     -0.518429
173   2     10.84640     13.40550      4.78345         0.652739     -0.446306      0.454516
174   2     13.51300     11.88380      4.83147        -0.168646     -0.454555      0.102507
175   2     10.05810     11.83910      7.29936         0.077176     -0.298847     -0.351994
176   2     12.96590     13.48230      7.18472        -0.466171     -0.470582      0.224501
177   2     11.90560     11.78800      9.52546         0.182005     -0.424215      0.159098
178   2     14.54840     13.08750      9.85353        -0.243867     -0.110025     -0.450787
179   2     11.25280     13.21440     12.07660         0.031351     -0.472494      0.316657
180   2     13.70340     11.49890     12.26690        -0.535615      0.399624     -0.216299
