ITEM: TIMESTEP
0
ITEM: NUMBER OF ATOMS
144
ITEM: BOX BOUNDS pp pp pp
0.0 12.4883307881 
0.0 12.4883307881
0.0 35.7286733738
ITEM: ATOMS id type x y z fx fy fz
1   2     12.19620      0.09057     35.47660        -0.679238     -0.713386      0.270305
2   2      1.58093      1.93210     35.23540         0.713711      0.510858      0.398555
3   2      2.00649     11.96000      1.73486        -0.187495      0.299133     -0.351129
4   2      0.06009      1.87512      1.90381        -0.045086      0.218125     -0.161053
5   2      0.09201     12.32070      4.03920         0.419265      0.463021     -0.255543
6   2      1.94726      2.04877      3.96608         0.952347     -0.837729      0.117483
7   2      2.07672     12.34330      6.14922        -0.159032      0.379629      0.341217
8   2      0.16576      2.19078      6.29997        -0.197853     -0.760366      0.172920
9   2     12.39050     12.42145      8.69543         0.333722      0.014777     -0.643359
10   2      1.93143      2.42719      8.43905         0.987142     -0.783362     -0.110294
11   2      1.97652      0.04241     10.59880         0.287709     -0.432653     -0.736792
12   2      0.25617      2.25191     10.57000        -1.490972     -0.060714     -0.108918
13   2     12.32270     12.34682     12.51600         0.592725      0.902036      1.135518
14   2      1.98686      2.04690     12.60720        -0.169068      0.816492      1.296182
15   2      2.53377      0.17866     15.09980        -0.489388      0.261350     -0.358901
16   2     12.43150      1.90038     14.64120         0.379215     -0.246432     -0.111787
17   2      0.38068      4.47716     35.42120        -0.626497     -0.577498     -0.335605
18   2      1.83417      6.75474     34.94410        -0.255822      0.170017      0.244297
19   2      2.05524      4.00863      1.87053         0.051829      0.360236      0.266631
20   2      0.13167      6.42223      1.56797        -0.695523     -0.040075      0.359896
21   2      0.26106      4.06447      4.28424        -0.855520      0.696770     -0.852860
22   2      1.86803      6.30194      3.83145         0.644707     -0.231202      0.043094
23   2      2.01860      4.34686      6.35200         0.815980      0.556121      0.129468
24   2     12.44528      6.34759      6.02803         1.290523     -0.455317      1.702740
25   2     12.33660      4.23460      8.33247         0.209378      0.479521      0.293779
26   2      2.12727      6.13185      8.60271        -0.111021      0.459477     -0.871152
27   2      2.02721      4.47021     10.72250        -0.061840     -0.501552     -0.693486
28   2     12.17700      6.19045     10.82350        -0.076258      0.839770     -1.201096
29   2      0.08197      4.30846     12.65610        -0.316633     -1.063956      1.293395
30   2      2.22735      6.58640     12.57200        -0.351176     -0.676934      0.652087
31   2      2.22221      4.58404     14.72960        -0.033287     -0.129540     -0.364204
32   2     12.26640      6.14224     14.86300         0.278105     -0.005906     -0.058846
33   2     11.91730      8.42203     35.08890         0.300148     -0.153270     -0.289335
34   2      2.30862     10.06450     35.09960        -0.026718      0.147703      0.573324
35   2      2.03584      8.33475      1.69333         1.177292     -0.208479      0.130106
36   2     12.42216      9.95606      1.58115         0.137451      1.758060      0.218402
37   2     12.29760      8.19709      4.06818         0.740076      0.794452     -1.215022
38   2      1.97133     10.11610      3.98587         0.071661      0.096609      0.250363
39   2      1.90057      8.50433      6.47876         0.453112     -0.278595     -0.852997
40   2     12.39080     10.51960      6.31142         0.709221     -0.126198      0.228503
41   2      0.03837      8.51804      8.46849        -0.564700     -0.473229      0.312291
42   2      2.03848     10.46340      8.49054         0.067514      0.935468      0.099368
43   2      2.02145      8.24069     10.42620        -0.291439      0.097593      0.195096
44   2     12.46668     10.37890     10.67960        -0.175661     -0.688592     -0.310734
45   2     12.37420      8.21164     12.86360        -0.177705      0.522268      0.146338
46   2      2.21641     10.16850     12.42780        -0.428426      0.181635      0.745357
47   2      2.16491      8.23899     14.79690        -0.457430      0.102418      0.045920
48   2      0.44683     10.72680     14.83540         0.632170     -0.626534     -0.328351
49   2      4.45182     12.12420     35.35070        -0.409405     -0.121626      0.367368
50   2      6.24053      2.16204      0.30322        -0.359290     -0.390668     -1.445692
51   2      6.14560     12.38880      1.83351         0.231340     -0.193831      0.570237
52   2      3.77239      1.81450      1.58690        -0.149471     -0.625309      0.186615
53   2      3.95164      0.02226      3.99953         0.177163     -0.032513     -0.413393
54   2      6.30598      2.03971      3.95872        -0.898390      0.016245      0.473668
55   2      6.13481      0.08281      5.93489        -0.105135     -0.236705      0.123515
56   2      3.95960      2.12410      6.11572        -0.152685     -0.719083      0.556119
57   2      4.03282      0.06420      8.42659        -0.143946      0.113264     -0.151119
58   2      6.24503      1.96562      7.97467        -0.329152     -0.261359      1.209656
59   2      6.22684     12.48340     10.31850         0.077021      0.649712      0.148261
60   2      4.07850      2.20022     10.47650         0.232943     -0.400348     -0.263891
61   2      3.86271      0.16562     12.54560         1.227282     -0.511858      0.584076
62   2      6.21747      2.16932     12.65760         0.065879     -0.823883     -0.478990
63   2      5.91251     12.48749     14.57720         0.112459      0.018606      0.041361
64   2      4.25290      2.34714     14.68990        -0.562792     -0.045164     -0.001855
65   2      4.18862      4.11376      0.06146        -0.161640     -0.017402     -0.395313
66   2      6.22996      6.01652     35.52470        -0.047309      0.633408      0.196341
67   2      6.31579      4.21610      2.11357        -0.321685      0.703414      0.336303
68   2      4.23791      6.08101      1.99908        -0.385924      0.280254      0.179493
69   2      4.06762      4.07842      4.27928         0.084117      0.810756     -0.761476
70   2      6.22393      6.31400      4.40088        -0.099922     -0.534788     -0.115350
71   2      6.12514      4.03529      6.36325         0.421875      1.107506     -1.175340
72   2      4.02046      6.68592      6.40285        -0.154031     -0.845765      0.179861
73   2      4.25905      4.11243      8.40209        -0.265494      0.311291      0.112783
74   2      6.30180      6.19863      8.31322        -0.311597      0.222134      0.102918
75   2      6.20917      4.29840     10.59690         0.105612     -0.380759     -0.691743
76   2      4.31772      6.32929     10.57660        -0.020049      0.516170     -0.594833
77   2      4.06583      4.21807     12.46390         0.477089     -0.046481      1.196136
78   2      6.27968      6.27811     12.73800         0.457837     -0.475663      0.348487
79   2      6.38198      4.06539     14.68600         0.376600      0.758866     -0.030921
80   2      4.35756      6.43188     14.93070         0.192688     -0.177912     -0.319343
81   2      4.16839      8.01293     35.45390         0.694983      0.153870      0.363879
82   2      6.62141     10.34900     35.54853         0.157800      0.004680      0.265220
83   2      6.22751      8.22801      2.24459         0.222432     -0.016366     -1.012690
84   2      4.22663     10.24180      2.02762        -0.114365     -0.031693     -0.467346
85   2      4.04648      8.09413      3.98827        -0.314874      0.592407      0.374291
86   2      6.21136     10.44510      4.04993        -0.249543     -0.185302     -0.064665
87   2      6.18121      8.43943      6.28885        -0.028563     -0.216739     -0.444559
88   2      4.19554     10.52040      6.22411        -0.248247     -0.382161     -0.019381
89   2      4.03913      8.58836      8.60436         0.926526     -0.380012     -0.232050
90   2      6.27686     10.35470      8.24188        -0.366850      0.307966      0.548879
91   2      6.55156      8.35702     10.76690        -0.452124      0.068839     -0.807264
92   2      4.44363     10.53380     10.79290        -0.599426     -0.475905     -1.033005
93   2      4.38437      8.35066     12.67220        -0.106118      0.158851      0.461380
94   2      6.32601     10.38680     12.74470         0.129472      0.193142      0.287208
95   2      6.63042      8.23131     14.78250        -0.482695     -0.538973      0.108333
96   2      3.93208     10.33060     14.86120         0.393291      0.071679     -0.385826
97   2      8.25413      0.50341     34.85790         0.199442      0.004038      0.840880
98   2     10.35850      2.57915     35.48360         0.374923     -0.564083      0.384327
99   2     10.35460      0.17086      2.09445        -0.254050     -0.361448     -0.368744
100   2      8.22394      2.21916      2.11489         1.924031     -0.434824     -0.167177
101   2      8.34421     12.35480      4.09532         0.307711      0.724878     -0.372503
102   2     10.66870      2.14300      4.16101        -0.451241     -0.035412     -0.150510
103   2     10.65670      0.16969      6.30765        -0.593720     -0.361402     -0.378122
104   2      8.47281      2.09633      6.03079        -0.045037     -0.068310      0.160209
105   2      8.11388     12.42930      7.99108         1.004736     -0.154366      0.234369
106   2     10.51740      1.97524      8.32998        -0.542346      0.345529      0.248022
107   2     10.38670      0.15774     10.62830        -0.678418      0.156102     -0.318173
108   2      8.12333      2.00926     10.20640         0.211069     -0.137884      0.278637
109   2      8.36344     12.38983     12.64300        -0.317344      0.127164     -0.445013
110   2     10.27990      2.15875     12.79790         0.613390     -0.274210     -0.558406
111   2     10.68450     12.10370     15.18520        -0.622115      0.333546     -0.503971
112   2      8.54115      1.48538     14.81650        -0.331268      0.301425      0.466139
113   2      8.14644      4.07462     35.28120         0.128892      0.227180      0.342103
114   2     10.26810      6.07440     35.51430         0.501234     -0.528932     -0.274960
115   2     10.83230      4.18327      2.09666        -0.318399     -0.155175     -0.485804
116   2      8.45590      6.22684      1.82948        -0.359766     -0.647411      0.792674
117   2      8.20744      4.28193      4.19824         0.509646      0.158932     -0.007761
118   2     10.65400      6.03101      4.12126        -1.565386     -0.107775     -1.010627
119   2     10.30170      4.27391      6.35720         0.079775     -0.513058     -0.242710
120   2      8.46496      6.38063      6.24053        -0.428325     -0.285688     -0.227789
121   2      8.32853      4.19507      8.42213        -0.131136      0.065695     -0.298787
122   2     10.65930      6.44175      8.27774        -0.588710     -0.103420      0.612264
123   2     10.35270      3.90407     10.36540         0.112036      0.357946      0.502813
124   2      8.39438      6.30261     10.48500         0.306204     -0.266636     -0.086521
125   2      8.27315      3.98091     12.37930         0.214131      0.511423      0.526900
126   2     10.20420      6.02683     12.78250         0.459101      0.009821     -0.398907
127   2     10.49930      3.87121     15.02080        -0.040494      0.072947     -0.269344
128   2      8.67345      5.96506     14.96880        -0.786430      0.156581      0.231871
129   2      8.35392      8.15593     35.57100        -1.217003      0.306798     -0.922078
130   2      9.98158     10.80620     35.37300         0.036909     -0.036222      0.310388
131   2     10.28090      8.42553      1.59083         0.642242     -0.784770      1.117959
132   2      8.47691     10.35330      2.10165        -0.591847      0.668692     -0.204827
133   2      8.47172      8.18820      3.91908         0.382433     -0.143895      0.513223
134   2     10.67060     10.41120      4.16405        -1.130478     -0.013410     -0.719478
135   2     10.52020      8.35240      6.19867        -0.687067      0.331230      0.060699
136   2      8.33085     10.32160      5.93278         0.236078     -0.220810      0.657275
137   2      8.23820      8.28545      8.22540         0.382306      0.264479      0.629596
138   2     10.29640     10.34120      8.26350        -0.363111      0.601410      0.128513
139   2     10.28450      8.48974     10.44110         0.205463     -0.299013      0.217193
140   2      8.29639     10.57640     10.41510         0.296794     -0.030639     -0.132041
141   2      8.57780      8.31006     12.76040         0.076921     -0.047080      0.218044
142   2     10.40660     10.39950     12.75630        -0.033299     -0.423056      0.312126
143   2     10.47850      8.22713     15.29020        -0.266075      0.210644     -0.850241
144   2      8.15001     10.45690     14.82500         0.892691      0.445654      0.140758
