ITEM: TIMESTEP
0
ITEM: NUMBER OF ATOMS
180
ITEM: BOX BOUNDS pp pp pp
0.0 15.336255 
0.0 14.75731
0.0 29.7984842388
ITEM: ATOMS id type x y z fx fy fz
1   2     15.22420     14.66740      0.07962         0.115330      0.706314     -0.400596
2   2      2.44103      1.39883     29.71097        -0.787219     -0.399661      0.201626
3   2      1.35629      0.04029      2.48531         0.754723      0.120316      0.216694
4   2      4.13251      1.34801      2.47134        -0.276303      0.020264     -0.622481
5   2      0.70146      1.56365      4.97488         0.253139     -0.228982     -0.044006
6   2      3.28931      0.10412      4.88147        -0.523869     -0.147251     -0.257509
7   2      0.12561      0.13405      7.37712         0.031934      0.309093     -1.337014
8   2      2.75421      1.68173      7.48378        -0.791613      0.144385     -1.015480
9   2      1.73098      0.12104      9.73794         0.191339      0.782410      0.260220
10   2      4.32530      1.45282      9.75936        -0.198197     -0.451026      0.255722
11   2      0.95039      1.44829     12.37470         0.063760      0.155735     -0.491457
12   2      3.39448     14.63510     12.13190        -0.205342      0.142402      0.066090
13   2     15.23900      2.67122     29.52190         0.215501      0.522728      0.266823
14   2      2.60632      4.27668     29.54130        -0.395588     -0.345342     -0.027745
15   2      1.50481      3.01120      2.31490         0.167653     -0.595909      0.008422
16   2      4.26865      4.34884      2.24777        -0.133670     -0.555582      0.868587
17   2      0.71883      4.50900      4.65646         0.556582     -0.000033      0.605092
18   2      3.33230      2.95010      4.69074        -0.546098      0.490369      0.198096
19   2     15.17449      3.03991      7.43174         0.447121      0.500825     -0.348877
20   2      2.69343      4.70212      6.95986        -0.743441     -0.586468      0.256034
21   2      1.73223      3.12414      9.51498        -0.364230      0.097308      0.762891
22   2      4.33099      4.28080      9.21908        -0.208668      0.660893      1.036346
23   2      1.12532      4.48283     12.08310        -0.417690     -0.915038      0.055756
24   2      3.62098      2.68979     12.42330        -0.293458     -0.052201     -0.276320
25   2      0.20550      5.66278     29.56510        -0.377014      0.375483     -0.036063
26   2      2.74173      7.28339     29.62130        -0.227861     -0.090384      0.002833
27   2      1.81272      5.77144      2.12803        -0.097662      0.700053      0.375609
28   2      4.40670      7.39022      2.28632        -0.202283      0.092173     -0.116536
29   2      1.02386      7.35272      4.65037        -0.636755      0.333226     -0.494872
30   2      3.42422      5.93213      4.61719         0.131631     -0.066994     -0.410998
31   2      0.07751      6.00979      7.32398        -0.270390     -0.344423     -0.685870
32   2      2.47050      7.52805      7.00927         0.498406      0.218333      0.431570
33   2      1.72457      5.95798      9.70189         0.247905     -0.427104     -0.475993
34   2      4.30657      7.19231      9.42517         0.292352      0.012266     -0.187424
35   2      0.90811      7.24432     12.10240        -0.335117      0.483911      0.042155
36   2      3.73340      5.41773     11.73000         0.062790      0.271077      0.348174
37   2      0.12698      8.67405     29.65050        -0.366407     -0.003344     -0.097772
38   2      2.41790     10.64780     29.51746        -0.050847     -0.794252      0.043069
39   2      1.76189      8.77773      2.10347         0.305898      0.169418      0.486224
40   2      4.38586     10.41840      2.22342        -0.320576     -0.172803      0.344533
41   2      1.01475     10.42230      4.61238        -0.178565     -0.241987     -0.473868
42   2      3.52803      8.87101      4.64526        -0.524158      0.614962     -0.128923
43   2     15.30810      9.07118      6.77620        -0.130618     -0.726899      0.532713
44   2      2.62771     10.49300      7.12046        -0.196741     -0.085516      0.294565
45   2      1.69292      8.73879      9.43405         0.261924      0.092157     -0.525060
46   2      4.27276     10.29340      9.63817        -0.502448     -0.002376      0.243558
47   2      1.11497     10.13320     11.70680         0.348938      0.382008      1.315847
48   2      3.43585      8.49377     11.89630        -0.390291      0.292631      0.009564
49   2     15.03136     12.00810     29.63750         0.339110     -0.936984     -0.404919
50   2      2.63919     13.36640     29.66340        -0.136445      0.346680     -0.152545
51   2      1.78512     11.80510      2.20276        -0.166754      0.141628      0.365066
52   2      4.18261     13.26500      2.20296         0.390397      0.188787      0.415646
53   2      0.94344     13.23000      4.87714        -0.351552      0.460699     -0.018479
54   2      3.49732     11.86070      4.76098        -0.129142      0.198590     -0.206820
55   2     15.27630     11.75720      7.13393        -0.123217      0.507990      0.020878
56   2      2.59925     13.37690      7.31350        -0.187355     -0.101371     -0.130642
57   2      1.87510     12.11570      9.77004        -0.264917     -1.235522     -0.453368
58   2      4.38379     13.10410      9.75619         0.246665      0.798353      0.136646
59   2      0.84310     13.24110     12.10050         0.124873      0.305350      0.249039
60   2      3.54755     11.87210     12.24730        -0.507898     -0.532616     -0.098233
61   2      5.42198     14.46690     29.41450        -1.133375      0.243270      0.072942
62   2      7.43263      1.58627     29.41400         1.075647     -0.152587     -0.029568
63   2      6.67857     14.74840      2.16425         0.287114      0.100728      0.354099
64   2      9.50509      1.63595      2.02105        -0.499221     -0.819522      0.325303
65   2      5.81193      1.69170      4.66092         0.791764     -0.147421     -0.169031
66   2      8.26386      0.19239      4.66583         0.515950      0.041214     -0.124710
67   2      4.98552      0.18860      7.11905         0.644601     -0.168001      0.672577
68   2      7.54504      1.48245      7.21181         0.719728     -0.104491      0.151506
69   2      6.79490     14.53131      9.81200        -0.229448      0.655461     -0.178002
70   2      9.20059      1.20011     10.03460        -0.281309      1.010353     -0.159456
71   2      6.00188      0.93318     12.13680        -0.263869      1.137489      0.622279
72   2      8.56985     14.71830     12.64130         0.342082     -0.628696     -0.117715
73   2      4.83520      2.49096     29.67960         0.559585      0.514535     -0.078780
74   2      7.76414      4.55291     29.24080        -0.137446     -0.346744      0.324893
75   2      6.86517      3.10806      1.84715        -0.200383     -0.149378      0.575014
76   2      9.31505      4.31047      2.49905         0.245038      0.719534     -0.686489
77   2      5.92855      4.52305      4.63398         0.287684     -0.233046     -0.498932
78   2      8.58936      3.02078      4.80674        -0.230863     -1.752176      0.108388
79   2      5.29251      3.04674      7.10534         0.030121     -0.454107     -0.618685
80   2      7.92893      4.35425      7.28019        -0.965798     -0.337965      0.729848
81   2      6.68145      2.85334      9.88204         0.745149     -0.294197     -0.289124
82   2      9.40030      4.17497      9.68216        -0.255937     -0.057770     -0.017588
83   2      6.09736      4.06133     12.59220        -1.025682      0.851876     -0.279122
84   2      8.29615      2.73777     12.41520         1.427764     -0.392094     -0.177823
85   2      5.07749      5.42671     29.76000         0.705796      0.826130     -0.815063
86   2      7.33084      7.35426     29.62199         0.212869      0.159682      0.083839
87   2      6.85177      5.94486      2.31139        -0.429607     -0.309385      0.240417
88   2      9.23249      7.22086      2.26279         0.451779      0.491444      0.446419
89   2      5.85477      7.52504      4.91246         0.599582     -0.093254     -0.338326
90   2      8.57714      5.63894      4.95314        -0.735535      2.058035     -1.001838
91   2      5.32555      5.81619      6.99091        -0.089662      0.647306      0.826131
92   2      7.74294      7.26149      7.18513        -0.404921      0.723747      0.245415
93   2      6.97661      5.60883     10.08690        -0.997208      0.360019     -0.521838
94   2      9.21396      7.17998      9.66076         0.428882      0.439570      0.163436
95   2      5.80385      7.26188     12.25880         0.924098     -0.315659     -0.315927
96   2      8.62877      5.72373     12.25810        -0.468605      0.497577      0.322265
97   2      4.97381      8.97339     29.66960         0.173156     -0.253128     -0.074177
98   2      7.65451     10.45380     29.73320         0.088934     -0.512272     -0.003421
99   2      6.93010      8.91137      2.36078        -0.197684     -0.161789     -0.355826
100   2      9.66672     10.47400      2.10091        -1.303721      0.086728      0.329823
101   2      5.97384     10.59430      4.83781        -0.283028     -0.492076      0.012753
102   2      8.30979      8.84316      4.73616         0.292523      0.302027      0.193378
103   2      5.06917      9.08230      7.35624         0.158994     -0.673736     -0.719069
104   2      7.56630     10.35190      7.08210         0.669475      0.038687      0.754677
105   2      6.78731      8.78054      9.67663         0.339856     -0.319070     -0.038235
106   2      9.60836     10.25500      9.67676        -0.897391      0.330011     -0.007528
107   2      5.78406     10.15350     12.04540         0.398537     -0.306158      0.301230
108   2      8.68014      8.97773     12.07740        -0.134365     -0.570376     -0.222102
109   2      5.14417     11.72070     29.43100        -0.046951      0.215660      0.148130
110   2      7.77878     13.23100     29.33490         0.574098      0.106143      0.288788
111   2      6.89274     11.71640      2.48578         0.273128      0.751000     -0.411738
112   2      9.27172     13.46750      2.25342        -0.046773     -0.039090     -0.058154
113   2      5.82495     13.53550      4.85764         0.324678     -0.354501     -0.620726
114   2      8.46670     12.04590      4.85613        -0.157156     -0.067737      0.058549
115   2      5.23016     12.12280      7.34663        -0.707440     -0.987426     -0.388791
116   2      7.56542     13.38410      7.51637         1.075314     -0.103368     -0.965562
117   2      7.01100     11.65080      9.91492        -0.089336     -0.729584     -0.559030
118   2      9.26218     13.18290      9.84887         0.472321     -0.523210      0.005624
119   2      6.12287     12.97230     12.18140         0.269785     -0.148075      0.596084
120   2      8.90714     11.70480     12.39230        -0.320000      0.317873     -0.143384
121   2     10.34590      0.07706     29.38000        -1.081191      0.083446      0.254718
122   2     12.65020      1.62832     29.46090         0.395873     -0.224250      0.234771
123   2     11.90920      0.06689      2.26479        -0.221619     -0.202019     -0.436634
124   2     14.29230      1.61301      2.45846         0.376586      0.009910     -0.033566
125   2     11.19130      1.61229      4.43613        -1.349640      0.607481      0.746806
126   2     13.34710      0.11108      4.74694         1.330086     -0.517382      0.480080
127   2     10.09230      0.05729      7.03492        -0.428235      0.046510     -0.354350
128   2     12.74150      1.57207      7.22368        -0.057116     -0.590337      0.123243
129   2     11.50510     14.66000      9.42038         1.238559      0.164790      0.363028
130   2     14.36650      1.49373      9.63814         0.060832     -0.159395      0.648182
131   2     11.03100      1.51213     12.47570         0.093214     -0.052758     -0.380036
132   2     13.47880     14.43450     11.78230         0.069378      0.994186     -0.060355
133   2     10.26180      3.02095     29.53890        -0.315898      0.319347     -0.229113
134   2     12.95880      4.44807     29.79010        -0.184154      0.249491     -0.636071
135   2     12.05800      3.24057      2.32176        -0.397355     -0.568668      0.156185
136   2     14.48940      4.71779      2.35157        -0.018729      0.026528      0.023403
137   2     11.10680      4.62702      4.78142         0.709049     -0.320812     -0.045369
138   2     13.66350      3.09850      5.04273        -0.303451      0.135531     -0.652867
139   2     10.31490      2.87401      7.27543        -0.359610     -0.176564     -0.197245
140   2     12.55440      4.58250      7.21570         0.994791      0.084752      0.220242
141   2     11.78960      2.73018      9.81919         0.148457     -0.072240      0.038756
142   2     14.19780      4.38561      9.79870         0.625178     -0.809938     -0.449794
143   2     10.96580      4.45920     11.96020         0.947945     -0.603351      0.424228
144   2     13.72040      2.65179     12.27460        -0.105163      0.071511     -0.427606
145   2     10.12180      5.88181     29.68750         0.232808     -0.219110     -0.095825
146   2     12.61380      7.27415     29.56230         0.582307     -0.168916      0.207537
147   2     11.83260      5.96819      2.36899         0.108909      0.553502     -0.037468
148   2     14.40550      7.66228      2.45095         0.342485     -0.488475     -0.380361
149   2     10.79030      7.70924      4.75763         0.392435     -0.611100     -0.165924
150   2     13.63730      6.12210      4.79819        -0.064385     -0.027565      0.233139
151   2     10.20560      5.95725      7.18279         0.537563      0.507920      0.566774
152   2     12.81920      7.64618      7.15247         0.160890     -0.821597      0.078236
153   2     11.94820      5.99060      9.60627        -0.739838     -0.046544      0.025682
154   2     14.49210      7.16657      9.63021        -0.121032      1.113292      0.189528
155   2     11.19680      7.25944     12.14650        -0.038821      0.357374     -0.158686
156   2     13.77610      5.78511     12.08790        -0.290630      0.187489      0.531230
157   2     10.14970      8.69699     29.72470        -0.520588      0.287095     -0.421969
158   2     12.67770     10.07660     29.45560         0.268649      0.432278      0.322557
159   2     11.83780      8.82349      2.18029         0.454517     -0.105882      0.332982
160   2     14.62470     10.46500      2.11565        -0.128032     -0.771176      0.342035
161   2     10.98280     10.55620      4.56285        -0.300977     -0.363640      0.661499
162   2     13.34510      9.00785      4.64451         0.394353      0.340127      0.248850
163   2     10.25200      8.91522      7.26626        -0.689819     -0.095132     -0.216457
164   2     12.64480     10.39550      7.39905         0.679798      0.684749     -0.167741
165   2     11.90540      8.82533      9.68873         0.770075     -0.229898      0.301321
166   2     14.71180     10.31640      9.69360        -1.029217      0.169326     -0.872854
167   2     11.39220     10.22420     12.23320        -0.868996      0.279515      0.015355
168   2     13.79930      9.12569     12.39370         0.682608     -1.284868     -0.421857
169   2     10.21490     11.86640     29.55180         0.320928      0.112973     -0.081208
170   2     12.63680     13.46220     29.65970         0.272981     -0.508942     -0.123137
171   2     12.07510     11.80870      2.30141        -0.502226      0.017481     -0.642552
172   2     14.36840     13.21990      2.39200         0.594928      0.944436     -0.074455
173   2     10.92470     13.33060      4.66991         0.032064      0.516873      0.025974
174   2     13.61890     11.97590      4.67036         0.114095     -0.492130      1.029794
175   2     10.21490     11.81340      7.17818        -0.514676      0.058235      0.151411
176   2     12.58400     13.37590      7.16303         0.695895     -0.277893     -0.099201
177   2     11.93020     11.90950      9.89526         0.375517      0.027582     -0.202866
178   2     14.70510     13.33800      9.36796        -1.179272     -0.678014      0.942243
179   2     11.10900     13.34590     12.72840        -0.003317     -0.039582     -0.429184
180   2     13.81850     11.80770     12.22540        -0.250653     -0.082306     -0.189298
