ITEM: TIMESTEP
0
ITEM: NUMBER OF ATOMS
144
ITEM: BOX BOUNDS pp pp pp
0.0 12.4883307881 
0.0 12.4883307881
0.0 35.7286733738
ITEM: ATOMS id type x y z fx fy fz
1   2     12.27126     12.45027     35.52500         0.374551     -0.539361     -0.226376
2   2      2.01813      2.17925     35.64040         0.339353     -0.244445     -0.203421
3   2      1.85425     12.41708      1.77455         0.741113      0.100568     -0.283516
4   2     12.42403      2.01869      1.75077        -0.240885      0.532557      0.301422
5   2     12.43870      0.06801      3.81221        -0.227890      0.121175      0.701398
6   2      2.16744      2.08952      4.01708        -0.470421      0.153084      0.090756
7   2      2.01257      0.02365      6.09724         0.251729      0.186847      0.324727
8   2     12.38380      1.92479      6.11610        -0.075035      0.167486      0.217301
9   2      0.09287      0.12467      8.30846         0.001478     -0.279837     -0.102510
10   2      2.23213      2.22703      8.37756        -0.949894      0.190384     -0.308011
11   2      2.14986      0.09847     10.38820         0.093847     -0.183841      0.458411
12   2      0.03316      1.96821     10.33260         0.033593      0.566593      0.603740
13   2      0.11176     12.46800     12.66730         0.285122      0.281073     -0.152912
14   2      2.24235      2.16263     12.40840        -0.231646     -0.598153      0.364935
15   2      2.33149     11.98300     14.74360        -0.773765      1.124784      0.014149
16   2      0.41837      1.98877     14.72000        -0.191931     -0.333855     -0.166013
17   2     12.37484      4.13994     35.39560        -0.056625      0.065758      0.530096
18   2      2.10739      6.40027     35.62860        -0.236526     -0.363696      0.082299
19   2      2.06552      4.18102      1.96861        -0.899678      0.750028     -0.020945
20   2     12.42860      6.05040      1.91323         0.325555      0.010185     -0.248947
21   2     12.35501      3.89540      4.07638         0.271104      0.174294     -0.519404
22   2      1.87971      6.36775      4.14565         0.577614     -0.561179     -0.184792
23   2      1.79693      4.20338      6.11510         0.120172      0.087099      0.294767
24   2     12.34110      6.51877      5.99768         0.430582     -0.627949      0.614289
25   2     12.41163      4.09554      8.29739         0.370599      0.099607     -0.557644
26   2      2.23762      6.21062      8.20248        -1.017937      0.155614      0.509515
27   2      2.05291      4.27746     10.54740         0.081186     -0.181224     -0.540209
28   2      0.01235      6.19505     10.32590         0.765188      0.229608      0.057424
29   2      0.14863      4.03355     12.74870        -0.375447      0.117674     -0.245725
30   2      2.05498      6.14029     12.66620         0.260856      0.370252      0.179128
31   2      2.01314      4.30521     14.89310         0.597709     -0.214818     -0.033427
32   2      0.05321      6.28580     14.75180         0.301656     -0.398335      0.108962
33   2      0.02877      8.46380     35.52080         0.103105     -0.149955      0.203016
34   2      1.96421     10.68750     35.16280         0.019372     -0.312453      0.547261
35   2      2.06612      8.23613      2.07916         0.242886      0.459083     -0.164501
36   2     12.44938     10.27760      1.98456         0.009733      0.405345     -0.551132
37   2     12.39112      8.38850      3.94209         0.326291      0.392749      0.782688
38   2      1.97839     10.60030      4.08976         0.212581     -0.726988     -0.225359
39   2      2.10215      8.56533      6.13106        -0.543396     -0.155767      0.224526
40   2     12.34970     10.55150      6.37075         0.393351     -0.070735     -0.296313
41   2      0.09796      8.25797      8.24119         0.121649      0.398958      0.048579
42   2      2.17885     10.40120      8.46615        -0.487100      0.444609     -0.830521
43   2      2.08899      8.28711     10.34290        -0.204187     -0.214879      0.273710
44   2      0.06777     10.48430     10.29540        -0.360234      0.031838      0.311159
45   2      0.13097      8.23294     12.55700         0.329444     -0.089848     -0.003940
46   2      2.02023     10.28330     12.46780         0.275605      0.370154     -0.026652
47   2      2.21789      8.39039     14.78030         0.167884     -0.520579     -0.021267
48   2      0.16397     10.23720     14.73230        -0.294676      0.502998     -0.149258
49   2      4.20396     12.46410     35.61810        -0.385622      0.562477     -0.429706
50   2      6.23883      2.18010     35.51390         0.143312     -0.272904      0.211302
51   2      6.15431      0.04881      1.86445        -0.049410      0.084897      0.320426
52   2      4.16734      2.59094      2.03876         0.575612     -1.425777      0.176272
53   2      4.02873      0.07337      3.79391         0.205688      0.076119      0.523555
54   2      6.12704      1.94609      4.25875        -0.104356      0.794467     -0.910176
55   2      6.09545      0.11802      6.26795        -0.148758     -0.561371      0.650463
56   2      4.07839      2.27364      6.25273        -0.044505     -0.241144     -0.376740
57   2      4.17212      0.22887      8.30542         0.220867     -0.431527      0.157890
58   2      6.38845      2.26646      8.34612        -0.532366     -0.314979      0.396171
59   2      6.13568     12.34080     10.66800        -0.556125      0.352444      0.639615
60   2      4.25840      2.26427     10.33990         0.432940     -0.055566      0.537286
61   2      4.18407      0.02397     12.68070        -0.034572     -0.302598     -0.291318
62   2      6.29789      2.14427     12.53170        -0.690755     -0.135295      0.256282
63   2      6.39989      0.04962     14.61120        -0.448591     -0.455828      0.059033
64   2      4.20226      1.97591     14.68050        -0.079719      0.180557      0.015255
65   2      4.17340      4.07628     35.43780        -0.063257      0.521253      0.016751
66   2      6.21240      6.13934     35.69652         0.206067     -0.296834     -0.143085
67   2      6.49697      4.01234      1.99507        -0.300011      0.576594     -0.482413
68   2      4.18305      6.15160      1.95644        -0.351414     -0.085035      0.007732
69   2      4.07753      4.42757      4.29562        -0.181420     -0.384206     -0.201917
70   2      6.21316      6.19886      4.05466         0.137263      0.306826      0.162753
71   2      6.35092      4.13408      6.19057        -0.333523      0.368682     -0.510036
72   2      4.18268      6.35503      6.34215         0.253049     -0.067636     -0.811267
73   2      4.19781      4.25671      8.27850        -0.024178     -0.234468      0.316298
74   2      6.16886      6.15378      8.39027         0.180994      1.071848      0.061956
75   2      6.30227      4.43298     10.65130        -0.242676     -0.674964      0.025161
76   2      4.08349      6.32661     10.58520         0.276152     -0.378294     -0.352910
77   2      4.16133      4.14105     12.76590         0.174361      0.288891     -0.057903
78   2      6.23071      6.32843     12.74430         0.159941     -0.119829      0.312741
79   2      6.22923      4.28736     14.74910         0.391103     -0.503131     -0.046176
80   2      4.29489      6.18374     15.02990        -0.449932      0.506008     -0.463166
81   2      3.92141      8.54138     35.62950         0.106892      0.058912      0.123121
82   2      6.19908     10.31940     35.55430        -0.428669      0.092070      0.033981
83   2      6.10121      8.16573      1.92530        -0.252160      0.558758      0.312246
84   2      4.12130     10.57900      1.89662        -0.244856     -1.135529      0.259387
85   2      4.13685      8.35400      4.26724         0.267527      0.263244     -0.747056
86   2      6.20742     10.53070      4.15988        -1.034132     -0.818019     -0.063425
87   2      6.22274      8.37393      6.29924         0.553982     -0.127186     -0.160260
88   2      4.15361     10.52910      6.41311         0.105027      0.346745     -0.706244
89   2      4.21832      8.44105      8.28403        -0.051898     -0.721865      0.669120
90   2      6.17869     10.38020      8.62003         0.035332     -0.381632     -0.377975
91   2      6.22409      8.27566     10.74260         0.053608      0.104144     -0.587548
92   2      4.07064     10.44290     10.50320         0.336734     -0.134582      0.533458
93   2      4.05176      8.22172     12.63390         0.224787      0.311674      0.403735
94   2      6.36936     10.25460     12.77010        -0.064950      0.115407     -0.056791
95   2      6.59820      8.25263     14.91110        -0.382891      0.320921     -0.369046
96   2      4.34484     10.29990     14.75260         0.905094     -0.663678     -0.118359
97   2      8.17600     12.32470     35.61897         0.125983      0.101501     -0.232386
98   2     10.29300      1.80865     35.48260        -0.354661      0.695335      0.028208
99   2     10.26120     12.40525      1.89030         0.090102     -0.018044      0.205482
100   2      8.23591      1.83962      2.00382         0.240534      0.476787     -0.022890
101   2      8.10012     12.37817      4.29158         0.953454      0.436711     -0.448773
102   2     10.18410      1.85174      4.15929         0.245887     -0.143370     -0.206215
103   2     10.27770     12.44119      6.63681        -0.291326      0.300323     -0.390979
104   2      8.26470      1.97326      6.27377         0.395261      0.149806      0.236354
105   2      8.00004     12.39692      8.79932         1.143551      0.429185     -1.107945
106   2     10.23160      2.22393      8.52132        -0.056521     -0.264824     -0.583553
107   2     10.37680      0.01127     10.44640         0.206522     -0.048693     -0.094340
108   2      8.25471      2.16724     10.53790         0.043643      0.211103     -0.318092
109   2      8.35009      0.06140     12.50020         0.187417     -0.287156      0.082512
110   2     10.48260      2.21453     12.37890         0.502397     -0.732227      0.141043
111   2     10.50730      0.14667     14.55610         0.210878      0.029353     -0.013910
112   2      8.33956      1.94650     14.78180         0.186426      0.304889      0.099489
113   2      8.58063      4.09627     35.46070        -0.292985     -0.012522      0.338684
114   2     10.40570      6.29149     35.64020         0.032572     -0.030673     -0.130607
115   2     10.33460      3.95717      2.01130         0.146770     -0.083081     -0.434433
116   2      8.40595      6.24247      1.99824        -0.348416     -0.150390     -0.359340
117   2      8.30999      4.14786      3.99269         0.007489     -0.398522      0.371295
118   2     10.49020      6.16909      3.97442        -0.131310     -0.136261     -0.051656
119   2     10.31120      4.04998      6.01199         0.278328     -0.041385      0.819166
120   2      8.51032      6.23708      5.90565        -0.549995      0.612827      0.711111
121   2      8.23583      4.36373      8.21901         1.072638     -0.112048      0.284328
122   2     10.51730      6.37416      8.07199        -0.397225     -0.601582      0.314618
123   2     10.57990      4.30385     10.39560        -0.810542     -0.323588      0.239610
124   2      8.38373      6.23038     10.42450         0.456430     -0.041441      0.594381
125   2      8.39714      3.93134     12.79560        -0.294202      1.213121     -0.208932
126   2     10.53790      6.02553     12.65280        -0.236084      0.113795     -0.026946
127   2     10.46910      3.89912     14.70400         0.223772      0.162285      0.129707
128   2      8.46819      6.22469     14.71620         0.232691     -0.285689     -0.165277
129   2      8.12443      8.34640     35.65080         0.513012     -0.501456     -0.090330
130   2     10.28420     10.27850      0.00363         0.034108     -0.109643     -0.189121
131   2     10.43690      8.19657      2.06170        -0.479328      0.513868     -0.744650
132   2      8.13443     10.28150      1.99919         0.207857      0.429930      0.008188
133   2      8.19118      8.41029      4.01164         0.138983     -0.201723      0.570074
134   2     10.30430     10.63990      4.03602         0.011640     -0.464923      0.409807
135   2     10.38100      8.60415      6.09224        -0.497748     -0.221805     -0.095016
136   2      8.13969     10.46780      6.46559         0.074073     -0.160669     -0.094727
137   2      8.38428      8.13248      8.47656        -0.605250      0.139108     -0.814783
138   2     10.21520     10.27760      8.45149         0.908638      0.190115     -0.297419
139   2     10.71920      8.24187     10.60650        -0.801290      0.128309     -0.471594
140   2      8.50272     10.09200     10.51070        -0.761066      0.409505      0.741772
141   2      8.56675      8.24610     12.63900        -0.068945     -0.131083      0.237896
142   2     10.55090     10.52080     12.50370         0.074339     -0.298582      0.286381
143   2     10.74860      8.27360     14.59940        -1.162840      0.324918      0.149765
144   2      8.58105     10.53350     14.62800        -0.058884     -0.232964     -0.105891
