ITEM: TIMESTEP
0
ITEM: NUMBER OF ATOMS
144
ITEM: BOX BOUNDS pp pp pp
0.0 12.4883307881 
0.0 12.4883307881
0.0 35.7286733738
ITEM: ATOMS id type x y z fx fy fz
1   2      0.00003      0.00003      0.04684        -0.000021     -0.000021     -0.094266
2   2      2.08139      2.08139      0.04684        -0.000439     -0.000438     -0.094154
3   2      2.08139      0.00003      2.09124        -0.000927     -0.000050     -0.006520
4   2      0.00003      2.08139      2.09124        -0.000050     -0.000926     -0.006520
5   2      0.00003      0.00003      4.16564        -0.000044     -0.000044      0.009866
6   2      2.08139      2.08139      4.16564        -0.000795     -0.000794      0.009678
7   2      2.08139      0.00003      6.24324        -0.000898     -0.000043      0.015441
8   2      0.00003      2.08139      6.24324        -0.000043     -0.000897      0.015441
9   2      0.00003      0.00003      8.32654        -0.000044     -0.000043     -0.015000
10   2      2.08139      2.08139      8.32654        -0.000735     -0.000734     -0.015572
11   2      2.08139      0.00003     10.40400        -0.000712     -0.000043     -0.008564
12   2      0.00003      2.08139     10.40400        -0.000043     -0.000711     -0.008564
13   2      0.00003      0.00003     12.47840        -0.000050     -0.000050      0.007242
14   2      2.08139      2.08139     12.47840        -0.000482     -0.000481      0.006250
15   2      2.08139      0.00003     14.52280        -0.000380     -0.000023      0.093187
16   2      0.00003      2.08139     14.52280        -0.000024     -0.000380      0.093187
17   2      0.00003      4.16278      0.04684        -0.000023      0.000364     -0.094107
18   2      2.08139      6.24417      0.04684        -0.000288     -0.000001     -0.094059
19   2      2.08139      4.16278      2.09124        -0.000751      0.000891     -0.006372
20   2      0.00003      6.24417      2.09124        -0.000051      0.000012     -0.006795
21   2      0.00003      4.16278      4.16564        -0.000043      0.001113      0.009745
22   2      2.08139      6.24417      4.16564        -0.000983      0.000007      0.009747
23   2      2.08139      4.16278      6.24324        -0.000744      0.000871      0.015264
24   2      0.00003      6.24417      6.24324        -0.000044      0.000007      0.015792
25   2      0.00003      4.16278      8.32654        -0.000043      0.001007     -0.015387
26   2      2.08139      6.24417      8.32654        -0.000879      0.000007     -0.015384
27   2      2.08139      4.16278     10.40400        -0.000645      0.000775     -0.008783
28   2      0.00003      6.24417     10.40400        -0.000044      0.000007     -0.007876
29   2      0.00003      4.16278     12.47840        -0.000050      0.000558      0.006361
30   2      2.08139      6.24417     12.47840        -0.000417      0.000012      0.006363
31   2      2.08139      4.16278     14.52280        -0.000473      0.000549      0.093146
32   2      0.00003      6.24417     14.52280        -0.000022     -0.000001      0.092447
33   2      0.00003      8.32556      0.04684        -0.000023     -0.000255     -0.094011
34   2      2.08139     10.40700      0.04684        -0.000439      0.000354     -0.094040
35   2      2.08139      8.32556      2.09124        -0.000751     -0.000709     -0.006375
36   2      0.00003     10.40700      2.09124        -0.000050      0.000782     -0.006522
37   2      0.00003      8.32556      4.16564        -0.000043     -0.000937      0.009750
38   2      2.08139     10.40700      4.16564        -0.000795      0.000654      0.009683
39   2      2.08139      8.32556      6.24324        -0.000744     -0.000698      0.015258
40   2      0.00003     10.40700      6.24324        -0.000043      0.000760      0.015436
41   2      0.00003      8.32556      8.32654        -0.000043     -0.000834     -0.015382
42   2      2.08139     10.40700      8.32654        -0.000735      0.000597     -0.015565
43   2      2.08139      8.32556     10.40400        -0.000645     -0.000599     -0.008788
44   2      0.00003     10.40700     10.40400        -0.000043      0.000572     -0.008567
45   2      0.00003      8.32556     12.47840        -0.000050     -0.000375      0.006364
46   2      2.08139     10.40700     12.47840        -0.000482      0.000337      0.006253
47   2      2.08139      8.32556     14.52280        -0.000473     -0.000440      0.093050
48   2      0.00003     10.40700     14.52280        -0.000024      0.000295      0.093073
49   2      4.16278      0.00003      0.04684         0.000364     -0.000023     -0.094107
50   2      6.24417      2.08139      0.04684        -0.000001     -0.000288     -0.094059
51   2      6.24417      0.00003      2.09124         0.000012     -0.000051     -0.006796
52   2      4.16278      2.08139      2.09124         0.000891     -0.000751     -0.006373
53   2      4.16278      0.00003      4.16564         0.001112     -0.000043      0.009745
54   2      6.24417      2.08139      4.16564         0.000007     -0.000982      0.009747
55   2      6.24417      0.00003      6.24324         0.000007     -0.000044      0.015792
56   2      4.16278      2.08139      6.24324         0.000871     -0.000743      0.015264
57   2      4.16278      0.00003      8.32654         0.001006     -0.000042     -0.015387
58   2      6.24417      2.08139      8.32654         0.000007     -0.000878     -0.015384
59   2      6.24417      0.00003     10.40400         0.000007     -0.000043     -0.007876
60   2      4.16278      2.08139     10.40400         0.000775     -0.000645     -0.008783
61   2      4.16278      0.00003     12.47840         0.000557     -0.000050      0.006361
62   2      6.24417      2.08139     12.47840         0.000012     -0.000417      0.006363
63   2      6.24417      0.00003     14.52280        -0.000001     -0.000022      0.092448
64   2      4.16278      2.08139     14.52280         0.000549     -0.000473      0.093146
65   2      4.16278      4.16278      0.04684         0.000515      0.000515     -0.094024
66   2      6.24417      6.24417      0.04684        -0.000001     -0.000001     -0.094040
67   2      6.24417      4.16278      2.09124         0.000012      0.001067     -0.006523
68   2      4.16278      6.24417      2.09124         0.001067      0.000012     -0.006523
69   2      4.16278      4.16278      4.16564         0.000924      0.000925      0.009683
70   2      6.24417      6.24417      4.16564         0.000007      0.000006      0.009876
71   2      6.24417      4.16278      6.24324         0.000007      0.001025      0.015431
72   2      4.16278      6.24417      6.24324         0.001025      0.000007      0.015430
73   2      4.16278      4.16278      8.32654         0.000862      0.000862     -0.015564
74   2      6.24417      6.24417      8.32654         0.000007      0.000007     -0.014986
75   2      6.24417      4.16278     10.40400         0.000007      0.000842     -0.008571
76   2      4.16278      6.24417     10.40400         0.000841      0.000007     -0.008571
77   2      4.16278      4.16278     12.47840         0.000622      0.000622      0.006251
78   2      6.24417      6.24417     12.47840         0.000012      0.000012      0.007247
79   2      6.24417      4.16278     14.52280        -0.000001      0.000456      0.093009
80   2      4.16278      6.24417     14.52280         0.000456     -0.000001      0.093009
81   2      4.16278      8.32556      0.04684         0.000514     -0.000406     -0.093927
82   2      6.24417     10.40700      0.04684        -0.000001      0.000202     -0.093946
83   2      6.24417      8.32556      2.09124         0.000012     -0.000885     -0.006526
84   2      4.16278     10.40700      2.09124         0.000892      0.000607     -0.006375
85   2      4.16278      8.32556      4.16564         0.000924     -0.000748      0.009688
86   2      6.24417     10.40700      4.16564         0.000007      0.000842      0.009752
87   2      6.24417      8.32556      6.24324         0.000007     -0.000853      0.015424
88   2      4.16278     10.40700      6.24324         0.000871      0.000606      0.015258
89   2      4.16278      8.32556      8.32654         0.000861     -0.000689     -0.015558
90   2      6.24417     10.40700      8.32654         0.000007      0.000741     -0.015376
91   2      6.24417      8.32556     10.40400         0.000007     -0.000666     -0.008577
92   2      4.16278     10.40700     10.40400         0.000775      0.000505     -0.008787
93   2      4.16278      8.32556     12.47840         0.000622     -0.000440      0.006255
94   2      6.24417     10.40700     12.47840         0.000012      0.000273      0.006366
95   2      6.24417      8.32556     14.52280        -0.000001     -0.000347      0.092912
96   2      4.16278     10.40700     14.52280         0.000549      0.000388      0.093033
97   2      8.32556      0.00003      0.04684        -0.000255     -0.000023     -0.094011
98   2     10.40700      2.08139      0.04684         0.000355     -0.000439     -0.094040
99   2     10.40700      0.00003      2.09124         0.000783     -0.000050     -0.006522
100   2      8.32556      2.08139      2.09124        -0.000709     -0.000750     -0.006376
101   2      8.32556      0.00003      4.16564        -0.000936     -0.000043      0.009750
102   2     10.40700      2.08139      4.16564         0.000655     -0.000795      0.009683
103   2     10.40700      0.00003      6.24324         0.000761     -0.000042      0.015436
104   2      8.32556      2.08139      6.24324        -0.000698     -0.000743      0.015258
105   2      8.32556      0.00003      8.32654        -0.000833     -0.000042     -0.015382
106   2     10.40700      2.08139      8.32654         0.000597     -0.000734     -0.015565
107   2     10.40700      0.00003     10.40400         0.000572     -0.000043     -0.008567
108   2      8.32556      2.08139     10.40400        -0.000598     -0.000645     -0.008788
109   2      8.32556      0.00003     12.47840        -0.000375     -0.000050      0.006364
110   2     10.40700      2.08139     12.47840         0.000338     -0.000481      0.006253
111   2     10.40700      0.00003     14.52280         0.000295     -0.000023      0.093073
112   2      8.32556      2.08139     14.52280        -0.000439     -0.000473      0.093050
113   2      8.32556      4.16278      0.04684        -0.000405      0.000515     -0.093927
114   2     10.40700      6.24417      0.04684         0.000202     -0.000001     -0.093946
115   2     10.40700      4.16278      2.09124         0.000607      0.000892     -0.006374
116   2      8.32556      6.24417      2.09124        -0.000884      0.000012     -0.006526
117   2      8.32556      4.16278      4.16564        -0.000748      0.000925      0.009688
118   2     10.40700      6.24417      4.16564         0.000843      0.000006      0.009753
119   2     10.40700      4.16278      6.24324         0.000606      0.000872      0.015258
120   2      8.32556      6.24417      6.24324        -0.000852      0.000007      0.015424
121   2      8.32556      4.16278      8.32654        -0.000689      0.000862     -0.015558
122   2     10.40700      6.24417      8.32654         0.000742      0.000007     -0.015376
123   2     10.40700      4.16278     10.40400         0.000505      0.000776     -0.008787
124   2      8.32556      6.24417     10.40400        -0.000665      0.000006     -0.008577
125   2      8.32556      4.16278     12.47840        -0.000439      0.000622      0.006255
126   2     10.40700      6.24417     12.47840         0.000273      0.000012      0.006366
127   2     10.40700      4.16278     14.52280         0.000389      0.000549      0.093032
128   2      8.32556      6.24417     14.52280        -0.000346     -0.000001      0.092912
129   2      8.32556      8.32556      0.04684        -0.000405     -0.000406     -0.093830
130   2     10.40700     10.40700      0.04684         0.000355      0.000354     -0.093927
131   2     10.40700      8.32556      2.09124         0.000607     -0.000709     -0.006378
132   2      8.32556     10.40700      2.09124        -0.000709      0.000607     -0.006378
133   2      8.32556      8.32556      4.16564        -0.000748     -0.000748      0.009692
134   2     10.40700     10.40700      4.16564         0.000655      0.000655      0.009688
135   2     10.40700      8.32556      6.24324         0.000607     -0.000699      0.015252
136   2      8.32556     10.40700      6.24324        -0.000698      0.000606      0.015252
137   2      8.32556      8.32556      8.32654        -0.000689     -0.000689     -0.015552
138   2     10.40700     10.40700      8.32654         0.000598      0.000598     -0.015557
139   2     10.40700      8.32556     10.40400         0.000505     -0.000600     -0.008792
140   2      8.32556     10.40700     10.40400        -0.000599      0.000505     -0.008792
141   2      8.32556      8.32556     12.47840        -0.000439     -0.000440      0.006258
142   2     10.40700     10.40700     12.47840         0.000338      0.000338      0.006255
143   2     10.40700      8.32556     14.52280         0.000389     -0.000440      0.092936
144   2      8.32556     10.40700     14.52280        -0.000440      0.000389      0.092936
