ITEM: TIMESTEP
0
ITEM: NUMBER OF ATOMS
180
ITEM: BOX BOUNDS pp pp pp
0.0 15.336255 
0.0 14.75731
0.0 29.7984842388
ITEM: ATOMS id type x y z fx fy fz
1   2     15.28810     14.60460      0.02072        -0.196651      0.356486     -0.528758
2   2      2.39844      1.38600     29.77280        -0.050369     -0.427376     -0.681347
3   2      1.71127     14.55950      2.19548        -0.027448      0.104822      0.105868
4   2      4.15410      1.68669      2.26472        -0.034684     -1.594454      0.411733
5   2      0.62625      1.40726      4.69538         1.427645     -0.492630      0.130482
6   2      3.43727      0.09339      4.59515        -0.063854     -0.257581      0.355842
7   2      0.07074     14.69002      7.21790        -0.272872     -0.271094     -0.184654
8   2      2.49659      1.45311      7.09630         0.355131      1.266427     -0.097211
9   2      1.96284      0.11595      9.67913        -0.390482      0.210067     -0.141254
10   2      4.56435      1.32072     10.08360        -0.472252      0.168970     -0.620174
11   2      1.10528      1.60258     11.84040         0.194797     -0.283838      0.350134
12   2      3.63056     14.63413     12.36460        -0.285772     -0.021479     -0.323955
13   2     15.03245      2.87546     29.47470         0.632359     -0.632626      0.382610
14   2      2.27200      4.19752     29.61130         0.113346      0.211414     -0.238371
15   2      1.54293      2.75974      2.23310        -0.666519      0.224068      0.421616
16   2      4.22210      4.36244      2.12080        -0.582577      0.708358      0.362729
17   2      0.91384      4.16157      4.71703         0.681157      0.939197     -0.011983
18   2      3.54566      2.91173      4.67357        -0.472263      0.491907      0.495442
19   2     15.24240      2.77919      7.39443         0.732693      0.853229     -0.199374
20   2      2.66862      4.61863      7.03384        -0.626864     -1.510034      0.393228
21   2      1.93402      3.12375      9.46892        -0.118610     -0.298618     -0.292772
22   2      4.31788      4.57147      9.94481         0.322910     -0.036300     -0.420866
23   2      0.96177      4.31364     11.88470         0.296896      0.689816      0.145950
24   2      3.63241      2.93506     12.19700        -0.021311     -0.001421      0.064439
25   2     15.12760      5.61455     29.31750         0.218411      0.629566      0.205604
26   2      2.30234      7.07107     29.34540         0.059120      0.171853      0.352005
27   2      1.54426      5.64286      2.22623        -0.358256      0.296758      0.134083
28   2      4.07657      7.13679      2.14962        -0.298249      0.622918     -0.194901
29   2      0.80558      7.28191      4.80289        -0.101868     -0.048208     -0.417262
30   2      3.25704      5.81088      4.66728         0.457102     -0.202725     -0.847174
31   2     15.29148      6.09504      7.26574         0.009486     -1.137951     -0.103478
32   2      2.67915      7.34893      7.02151        -0.319570      0.555397      0.593538
33   2      1.93988      6.02425      9.41126        -0.622109     -0.337226      0.484751
34   2      4.21950      7.46771      9.86508         0.885309      0.143544      0.265307
35   2      1.00557      7.34201     12.27900         0.811938     -0.229755     -0.234255
36   2      3.67431      5.81664     12.37560        -0.387122      0.564659     -0.085621
37   2     15.04320      8.45927     29.45590        -0.060173     -0.025151      0.037238
38   2      2.10419     10.00570     29.50730         0.724017     -0.029039     -0.550829
39   2      1.76626      8.74429      2.13877         0.158636     -0.821532      0.265694
40   2      4.08605     10.38650      2.11685         0.552584     -0.161887      0.355226
41   2      0.78089     10.13030      4.40112        -0.103201      0.416525      0.847961
42   2      3.37581      8.69244      4.76881        -0.035371      0.451929     -0.718682
43   2     15.25792      8.78651      7.11877        -0.040058      0.831503     -0.343709
44   2      2.32988     10.25320      7.01759         0.884676      0.331979     -0.505746
45   2      1.98915      9.06473      9.45384        -0.740553     -0.172554      0.454643
46   2      4.32341     10.46250      9.50381         0.502700      0.185263      0.228544
47   2      1.16904     10.13130     12.15860        -0.511751      0.453401     -0.221262
48   2      3.57924      8.80561     12.40920         0.466952     -0.588313     -0.201740
49   2      0.00564     11.76800     29.39380        -0.391411      0.103391     -0.006112
50   2      2.47041     13.15970     29.52140        -0.138853      0.342096      0.162520
51   2      1.51219     11.53840      2.07327         0.351615      1.137975      0.256814
52   2      4.27691     13.34470      2.29995        -0.215777      0.017747     -0.186213
53   2      0.96420     13.39890      4.52709        -0.347594     -0.762513      0.463613
54   2      3.30748     11.68360      4.57060         0.100684      0.086231      0.261358
55   2      0.16038     11.88520      6.87769        -0.647282      0.055416     -0.098985
56   2      2.69137     13.55250      7.20905        -0.053844     -1.116643     -0.893292
57   2      1.93807     11.96000      9.47054        -0.904094     -0.675594     -0.054444
58   2      4.27777     13.29310      9.51645         1.175524     -0.009191      0.589101
59   2      1.14277     13.15610     11.94320        -0.033599      0.151571      0.176914
60   2      3.48745     11.58360     12.40430         0.439517      0.709233     -0.283899
61   2      5.20942      0.02779     29.53180        -0.634381     -0.595106      0.132853
62   2      7.66798      1.28454     29.69430         0.110733      0.502929     -0.278298
63   2      6.64626      0.27659      2.44053        -0.597998     -0.829257      0.046987
64   2      9.03944      1.51200      2.33848         1.182986      0.427133      0.327548
65   2      5.95445      1.58933      5.10263         0.490765     -0.305652     -0.212432
66   2      8.63873      0.18230      5.06578        -0.026327      0.097781     -0.375967
67   2      5.25254      0.12490      7.35716        -0.454594      0.035414     -0.154438
68   2      7.72311      1.54054      7.59490         0.359926      0.435935     -0.513866
69   2      7.00737     14.64600      9.65944        -0.193880      0.384600      0.889727
70   2      9.49669      1.55018     10.17640        -0.467478      0.302900     -1.465181
71   2      6.40314      1.56389     12.16990        -0.355587     -0.351631      0.407317
72   2      8.81200     14.75490     12.29820        -0.111508     -0.185731      0.356090
73   2      4.90103      2.75179     29.68500         0.611712      0.605290     -0.876279
74   2      7.45776      4.33938     29.77830        -0.123745     -0.306632     -0.274065
75   2      6.62332      3.01655      2.61953        -0.266960      0.084376      0.172692
76   2      8.88543      4.45034      2.42403         1.292706     -0.107621     -0.333731
77   2      6.05607      4.40341      5.22330        -0.618422      0.081163     -1.349355
78   2      8.67031      3.21091      4.91995         0.128471     -1.613296      0.044784
79   2      5.06863      3.02547      7.56101        -0.407900     -0.399269      0.016432
80   2      7.72416      4.40061      7.28128         0.632450      0.456525      1.429632
81   2      6.75351      3.09725      9.80788         0.734350      0.333520     -0.135636
82   2      9.65047      4.72139      9.78911        -0.614810     -0.683729      0.166826
83   2      6.21718      4.61844     12.25590        -0.200397      0.099691      0.131939
84   2      8.58570      3.21297     12.12870         0.620235      0.211183      0.413366
85   2      4.80346      5.64097     29.29810         0.149610      0.213390      0.361727
86   2      7.30479      7.24565     29.74660         0.035096      0.232243     -0.712066
87   2      6.55646      5.92471      2.28969        -0.384963     -0.839398     -0.567364
88   2      8.85087      7.33725      2.32742         1.591500     -0.166855      0.175084
89   2      5.79566      7.10278      4.48626         0.138665      0.992035      1.324553
90   2      8.79822      5.86607      4.90596        -0.419272      0.882230      0.276716
91   2      5.12610      5.87310      7.36213         0.605200      0.528445      0.516256
92   2      7.56015      7.63162      7.47657         0.792850     -0.706900     -0.216721
93   2      6.89095      6.20434      9.97598        -0.281428     -0.303153     -0.612109
94   2      9.31826      7.51616      9.95978         0.570293      0.613995     -0.489010
95   2      6.35285      7.60890     12.36040        -0.734768     -0.272568      0.001713
96   2      8.95084      5.97778     12.34230        -0.594915      0.436340      0.086886
97   2      4.87175      8.87679     29.65960        -0.041365     -0.315187      0.026898
98   2      7.83466     10.30880     29.62670        -0.025943     -0.073782      0.144112
99   2      6.74080      8.99311      2.19793        -0.845372      0.679676      0.324306
100   2      9.56348     10.04910      2.29610        -1.336880      0.227384     -0.157769
101   2      5.75408     10.07280      4.95657         0.350995      0.029439     -0.370986
102   2      8.38378      8.68610      4.84506        -0.383835      0.158449      0.178352
103   2      5.13003      8.73494      7.45618        -0.534555      0.484446     -0.483123
104   2      7.71429     10.58510      7.17369         0.065374     -0.290996     -0.130398
105   2      6.94008      9.29265      9.73397         0.073148     -1.502067      0.266863
106   2      9.63680     10.62240     10.05990        -0.940354     -0.391173     -0.829077
107   2      6.08028     10.43240     12.35820        -0.604745     -0.410744     -0.082089
108   2      8.73854      8.89265     12.37460         0.286872      0.402622     -0.122199
109   2      4.77796     11.78510     29.48570         0.679994     -0.095389      0.179704
110   2      7.46993     13.15440     29.32830         0.262862     -0.280966      0.279025
111   2      6.65907     11.92130      2.05529         0.036667     -0.329138     -0.018825
112   2      8.99063     13.43090      2.48175         0.338157     -0.174406     -0.153275
113   2      5.98737     13.44020      4.66738        -0.273935     -0.000077      0.316362
114   2      8.09921     11.70470      4.53575         0.483484     -0.296261      0.193614
115   2      5.13024     11.94290      6.99418        -0.180308     -0.078692      0.015878
116   2      7.75007     13.43420      7.27437         0.156458     -0.499721     -0.535944
117   2      6.91982     11.87650      9.66399        -0.271148      0.892521     -0.245321
118   2      9.51383     13.34500      9.70145         0.225067      0.175514      0.003893
119   2      6.10540     13.41660     12.12850        -1.083408      0.390921      0.121631
120   2      8.27106     11.97260     12.21700         1.748390     -0.422618      0.217349
121   2     10.04160     14.44150     29.74480         0.284816      0.141170      0.017948
122   2     12.82330      1.20403     29.64750        -0.500814     -0.083842      0.076479
123   2     11.75800      0.06069      2.38316        -0.420751     -0.950315     -0.542072
124   2     14.19250      1.32176      2.55709         0.621274      0.362009     -0.858589
125   2     11.16080      1.60101      4.61899        -0.411033     -0.200447      0.694200
126   2     13.53160     14.75364      4.88259         0.028525     -0.180379     -0.524239
127   2     10.31030      0.17401      7.41585        -0.132937     -0.592440      0.020495
128   2     12.76100      1.56071      7.16797        -0.255603     -0.008610      0.333072
129   2     11.89380      0.13897     10.15060         0.302524     -0.594301     -0.534572
130   2     14.45410      1.27786      9.54203         0.101778      0.524661     -0.151149
131   2     11.18410      1.71134     12.39980         0.122754      0.200532      0.313029
132   2     14.06270      0.23842     11.96190        -0.304979     -0.658999      0.776342
133   2     10.29240      2.79287     29.65060        -0.634778     -0.137779     -0.170746
134   2     12.68400      4.29426     29.47220        -0.678803     -0.327040     -0.068025
135   2     11.76270      2.81169      2.15825         0.147031      0.762916      0.264167
136   2     13.96500      4.82089      2.12692         0.892652     -0.290717      0.468753
137   2     11.31330      4.36974      4.77323        -0.186510      0.256821      0.056910
138   2     13.87100      3.04318      4.92469        -1.747980      0.057531     -0.318367
139   2     10.27410      2.88785      7.45131        -0.320180      0.748140      0.055934
140   2     12.62720      4.48334      7.27819         0.346429     -0.231496     -0.055200
141   2     11.95380      3.03317      9.91251         0.363594      0.048644     -0.312576
142   2     14.45830      4.51819      9.53787         0.621442     -0.325806      0.156604
143   2     11.40110      4.79803     12.33310         0.125009     -1.071700     -0.066291
144   2     13.67680      3.08477     12.33280         0.223815     -0.150254     -0.326137
145   2     10.01070      5.75824     29.72476        -0.588531     -0.372665     -0.221685
146   2     12.44350      7.05466     29.72420         0.956766      0.320600     -0.240165
147   2     11.44100      5.75148      2.33584        -0.315443      0.232891      0.279074
148   2     14.59000      7.59273      2.39225        -0.301951     -1.081820      0.052135
149   2     11.05480      7.46397      4.66985         0.182030     -0.052912      0.081134
150   2     13.71270      5.86287      4.83516        -0.065018      0.333903     -0.335957
151   2     10.13480      6.03645      7.43985        -0.204065      0.087586     -0.446049
152   2     12.66230      7.34471      7.10081         0.137753      0.257792     -0.054144
153   2     12.17380      6.02426      9.59822        -0.156810      0.596597      0.376461
154   2     14.94940      7.57867      9.67024        -0.570018     -0.259088      0.235726
155   2     11.61570      7.46275     12.09830        -0.435581      0.177815     -0.089269
156   2     14.02650      5.90984     12.14880        -0.370640      0.079972     -0.125845
157   2     10.17180      8.57488     29.38880        -0.359049      0.583412      0.436148
158   2     12.91400     10.36490     29.55470        -0.493392     -0.667386     -0.051795
159   2     11.86840      8.66219      2.16237         0.421119     -0.045910     -0.114114
160   2     14.40270     10.26560      2.11043        -0.474331      0.433006      0.005305
161   2     10.73530     10.36210      4.83600         0.084464     -0.364657      0.130579
162   2     13.41070      9.09541      4.55319         0.180578     -0.544140      0.044475
163   2     10.17330      8.90554      7.32533        -0.435477      0.148334     -0.278629
164   2     12.81360     10.22670      6.97964        -0.275577      0.729133      0.199882
165   2     11.88050      9.01719      9.48467         0.341693     -0.674105      0.239023
166   2     14.37720     10.37310      9.38570         0.952758     -0.516489     -0.149986
167   2     11.29960     10.16950     12.09370         0.661409      0.501565      0.716405
168   2     13.97580      8.91654     12.00150        -0.083422      0.221641      0.035282
169   2     10.32780     11.63400     29.26710        -0.508787     -0.307577      0.256058
170   2     12.67140     13.08410     29.28860         0.247994      0.735162      0.430216
171   2     11.58910     11.76840      2.10100         0.783820      0.408145     -0.402834
172   2     14.28480     13.10650      2.13671        -0.201628      0.069743      0.355935
173   2     10.99390     13.04990      4.45862        -0.754090      1.010349      0.773273
174   2     13.43760     11.91900      4.58713         0.900672     -0.340642      0.156704
175   2     10.29260     11.91320      7.23380         0.034390      0.012309      0.035457
176   2     12.69740     13.48240      7.07514         0.079788     -0.917881      0.763537
177   2     12.13700     11.93070      9.59337        -0.844002      0.577585     -0.271321
178   2     14.64240     13.13590      9.55460         0.412752      0.886512     -0.665165
179   2     11.13860     13.06800     12.28350        -0.007765     -0.169181     -0.343291
180   2     13.92080     11.84680     11.81650        -0.225459     -0.295956      0.963210
