ITEM: TIMESTEP
0
ITEM: NUMBER OF ATOMS
144
ITEM: BOX BOUNDS pp pp pp
0.0 12.4883307881 
0.0 12.4883307881
0.0 35.7286733738
ITEM: ATOMS id type x y z fx fy fz
1   2     12.38917     12.47140     35.51055         0.176235     -0.125165      0.185326
2   2      1.95355      1.96189     35.51596         0.336714      0.017187      0.148280
3   2      2.09587      0.08873      1.95959        -0.210721     -0.386541     -0.351606
4   2      0.03792      2.09156      2.09232        -0.083554     -0.599669     -0.213685
5   2     12.37914      0.01777      4.18608         0.535157      0.353018     -0.385161
6   2      2.19117      2.10366      4.08722        -0.334541     -0.451165      0.435217
7   2      2.08911      0.15417      6.37651        -0.010049      0.221313      0.009968
8   2      0.04451      2.17678      6.34331         0.084169     -0.163818     -0.046495
9   2     12.46010      0.13237      8.49490         0.223595     -0.304974     -0.395805
10   2      2.20394      2.14023      8.69935         0.233674     -0.201295     -0.379197
11   2      2.20657      0.06947     10.66190        -0.746206      0.513726     -0.164070
12   2     12.33010      2.09621     10.52000         0.798459      0.015349      0.516738
13   2      0.17017      0.07474     12.77800        -0.416427      0.076999     -0.455476
14   2      2.23934      2.19383     12.75810        -0.680948     -0.608943     -0.822556
15   2      1.90542      0.10562     14.96730         0.369498     -0.071824     -0.298584
16   2     12.26990      2.10482     14.77060         0.516223     -0.115950      0.218601
17   2      0.12186      4.09463     35.64880        -0.116221      0.144511     -0.159196
18   2      2.22881      5.98938      0.12893        -0.816147      0.849290     -0.713535
19   2      2.05867      4.08086      2.12031         0.111650     -0.044451     -0.477116
20   2     12.40081      6.13773      2.12822         0.428203      0.695125     -0.693383
21   2      0.04112      4.16076      4.17264         0.185840     -0.183904      0.484871
22   2      1.99054      6.44625      4.01977         0.139308     -0.481932      0.467866
23   2      2.11787      4.24043      6.21247        -0.077232     -0.183342      0.067136
24   2      0.13967      6.39215      6.29236        -0.093066     -0.241464     -0.364533
25   2      0.30167      4.18991      8.41306        -0.496595      0.401643      0.307503
26   2      2.23262      6.45653      8.28204        -0.187631     -0.277251      0.042974
27   2      2.23600      4.34233     10.56290        -0.568014     -0.265730     -0.024354
28   2     12.48830      6.44086     10.55940         0.232619     -0.779325     -0.325200
29   2      0.14197      4.21481     12.70400        -0.184920     -0.244934     -0.510401
30   2      1.88250      6.39269     12.76570         0.504885     -0.150289     -0.200158
31   2      2.16712      3.96596     14.87330        -0.298765      0.435254      0.108266
32   2      0.08937      6.04316     14.92540        -0.205591      0.126131     -0.137843
33   2      0.07177      8.10926     35.56880         0.628328      0.410673      0.218262
34   2      2.13248     10.20630     35.57840         0.038230      0.136951      0.247594
35   2      2.14038      8.28779      1.92589        -0.293015      0.371610     -0.460072
36   2      0.01627     10.52430      1.88673         0.084471     -0.376112     -0.089927
37   2      0.04119      8.50167      3.99526        -0.288044      0.020299     -0.220189
38   2      2.13885     10.60370      3.98470        -0.519538     -0.698939     -0.238653
39   2      2.20884      8.54991      6.16952         0.045334     -0.511556      0.239849
40   2      0.22577     10.50040      6.10553        -0.763457      0.036926      0.490028
41   2     12.39360      8.32944      8.23931         0.259710      0.401057      0.369860
42   2      1.94863     10.49110      8.38505        -0.031679     -0.070234     -0.105262
43   2      2.14361      8.39414     10.38250        -0.714516     -0.211125      0.013134
44   2     12.44310     10.48750     10.58890        -0.051107      0.020012     -0.228065
45   2     12.38510      8.35986     12.68860        -0.052947      0.019033      0.161004
46   2      1.92235     10.32350     12.64200         0.731386     -0.055160      0.117218
47   2      1.82690      8.34779     15.08780         0.269627     -0.228168     -0.467042
48   2     12.46090     10.38040     14.65130        -0.442103      0.324226      0.441426
49   2      4.18804     12.32736     35.57436        -0.119540      0.105474      0.105365
50   2      6.21178      2.33106     35.60640         0.302382     -0.532966     -0.265949
51   2      6.35930      0.01741      1.92543        -0.748127     -0.097155      0.123053
52   2      4.17524      1.96048      1.82562        -0.047501      0.286068     -0.040460
53   2      4.10699     12.41210      4.06647         0.664376      0.953994     -0.410537
54   2      6.11188      2.15053      3.99435        -0.197021     -0.656072      0.311886
55   2      6.06685      0.03239      6.18302         0.817766      0.334230     -0.141280
56   2      4.15185      2.16458      6.21506        -0.187623     -0.148801      0.140005
57   2      4.22943     12.36870      8.40860        -0.433574      0.824585     -0.156821
58   2      6.25141      1.98723      8.28281         0.412481      0.111028      0.032873
59   2      6.26803     12.42140     10.63460         0.091485     -0.394063     -0.339311
60   2      4.49759      2.03742     10.50380        -1.105244      0.330843     -0.277233
61   2      4.06444     12.27885     12.71500         0.351973      0.138280      0.532564
62   2      6.24485      2.19078     12.57070         0.371886     -0.138969      0.739380
63   2      6.29666      0.02917     14.70110        -0.365608      0.080241     -0.258877
64   2      4.26069      2.09986     14.59050         0.412683     -0.362608      0.511298
65   2      4.04724      4.09212     35.37620         0.374003     -0.426894      0.384862
66   2      6.36497      5.97040     35.63930        -0.353534     -0.122141     -0.342492
67   2      6.21776      4.11437      1.97499        -0.120904      0.105655      0.048644
68   2      4.19138      6.21630      1.99346         0.473294     -0.002369      0.107977
69   2      4.05640      4.22280      4.01698         0.368406     -0.094411      0.255351
70   2      6.18187      6.17990      4.16682         0.396002      0.398398     -0.182907
71   2      6.24394      4.11770      6.17607         0.254781      0.061810      0.166938
72   2      4.09384      6.23433      6.07441         0.269579      0.520200      0.361078
73   2      4.29250      4.20506      8.27853        -0.311185     -0.054073      0.310183
74   2      6.30141      6.22308      8.24956         0.124068     -0.196873     -0.213253
75   2      6.36942      4.27070     10.48920        -0.319348      0.237674     -0.510075
76   2      4.20035      6.27433     10.40490         0.052230     -0.147661     -0.251489
77   2      4.16224      4.21365     12.58780        -0.193549      0.100160      0.114008
78   2      5.90510      6.32628     12.62520         1.030457     -0.410753      0.123862
79   2      6.24229      4.36707     14.62220         0.140529     -0.123698     -0.000761
80   2      3.84457      6.28519     14.85370         0.152387      0.039952     -0.190248
81   2      4.38724      8.10687     35.50430        -0.701291     -0.483908      0.241642
82   2      6.10793     10.13510     35.48154         0.901198      0.657865     -0.173509
83   2      6.42683      8.07285      1.89978        -0.670987      0.096884      0.504473
84   2      4.36940     10.32360      1.86477        -0.653426      0.053426      0.167818
85   2      4.09053      8.37456      3.97807         0.371944     -0.135826      0.301486
86   2      6.13322     10.28250      4.05950         0.540742      0.309884     -0.080801
87   2      6.30192      8.41353      6.21740        -0.484012     -0.527628     -0.359962
88   2      4.14634     10.55960      6.13718        -0.143541     -0.726037      0.561571
89   2      4.37490      8.37078      8.42787        -0.554335      0.063567     -0.697674
90   2      6.22735     10.45610      8.47132         0.204590     -0.217266     -0.277421
91   2      6.32495      8.28858     10.42560        -0.329995      0.067487      0.219963
92   2      3.96472     10.47330     10.40570         0.827505     -0.453893      0.623524
93   2      4.00940      8.22958     12.45680        -0.289548      0.991040      0.468544
94   2      6.23303     10.27960     12.56760        -0.484559      0.206620      0.021970
95   2      6.00498      8.32223     14.64930         0.024248      0.027223      0.242768
96   2      4.02237     10.22140     14.81300        -0.303357      0.318707     -0.399589
97   2      8.00599     12.43916     35.46720         0.397941     -0.059208      0.115390
98   2     10.54280      2.12011     35.55590        -0.305471     -0.047516      0.216728
99   2     10.38670     12.41070      1.84434        -0.235602      0.249087      0.135247
100   2      8.39805      1.96612      2.02130         0.254657      0.467334     -0.715607
101   2      8.23984      0.10024      4.07612         0.079026     -0.284616      0.442620
102   2     10.45350      2.10796      4.14162        -0.264461      0.090943      0.051972
103   2     10.41330      0.10591      6.23495         0.150902     -0.343706      0.236511
104   2      8.46185      2.08730      6.36405        -0.550084     -0.045939     -0.484657
105   2      8.35288     12.25332      8.30668        -0.204925      0.912938      0.129012
106   2     10.37590      2.15601      8.47070         0.189915     -0.319235     -0.086498
107   2     10.33720     12.41370     10.37510        -0.189887      0.099915      0.551234
108   2      8.19415      2.09809     10.54730         0.583959     -0.264572     -0.364915
109   2      8.24369     12.44960     12.59820         0.278135      0.270206     -0.205470
110   2     10.44970      1.95387     12.67940        -0.421806     -0.144019     -0.643381
111   2     10.20760     12.40743     14.70490         0.420683      0.279198      0.027320
112   2      8.25992      2.22055     14.62830        -0.049959      0.002345     -0.191456
113   2      8.48355      4.09574     35.40550         0.218196     -0.011700      0.499451
114   2     10.61950      6.21865     35.43500        -0.286202     -0.790281      0.158143
115   2     10.57120      4.08861      1.99591        -0.904048     -0.204855     -0.193102
116   2      8.45181      5.97081      2.05680         0.151879      0.098772      0.136737
117   2      8.18793      3.98614      4.05410         0.706114      0.315589      0.368210
118   2     10.54500      6.15120      4.18254        -0.495046      0.476908     -0.111920
119   2     10.55800      4.26651      6.35620         0.202525     -0.539677     -0.385668
120   2      8.47249      6.19470      6.06980        -0.566923      0.289454      0.008859
121   2      8.46223      4.13792      8.28780        -0.743632      0.381789      0.435401
122   2     10.39480      6.25782      8.25775         0.441821      0.318471      0.362526
123   2     10.45350      4.13367     10.58800         0.237664      0.513647     -0.219444
124   2      8.45361      6.41326     10.30760        -0.054495     -0.687742      0.114783
125   2      8.37550      4.39963     12.38450        -0.398164     -0.086131      0.780243
126   2     10.32860      6.41395     12.70310         0.379586     -0.396434     -0.086977
127   2     10.37020      4.15757     14.39810        -0.183067      0.343356      0.594145
128   2      8.15226      6.52612     14.84370         0.011878     -0.587911     -0.123635
129   2      8.37524      7.90679     35.71530        -0.036019      0.473988     -0.849324
130   2     10.20650     10.39230     35.58190        -0.014859      0.156877      0.000916
131   2     10.44900      8.30181      1.68509         0.349539      0.143549      1.024579
132   2      8.15728     10.31880      1.93982         0.403748      0.392825     -0.388137
133   2      8.46926      8.39594      3.89442        -0.027762     -0.592108      0.466458
134   2     10.36050     10.54280      4.09853        -0.053430      0.017090     -0.424536
135   2     10.45690      8.49982      5.99610        -0.101974     -0.406751      0.369118
136   2      8.17643     10.49800      6.12679         0.302540     -0.037602     -0.233420
137   2      8.24853      8.30726      8.20079         0.568984      0.186070     -0.123937
138   2     10.39400     10.34850      8.17497         0.344401     -0.009260      0.152884
139   2     10.49210      8.34715     10.50170        -0.135897      0.322683     -0.269097
140   2      8.40214     10.23170     10.42810        -0.071022      0.332927      0.205011
141   2      8.12236      8.13687     12.57960         0.268975      0.568905      0.035442
142   2     10.24730     10.38870     12.66780         0.426636      0.021449     -0.448754
143   2     10.25040      8.39122     14.72870         0.183020      0.079993      0.113858
144   2      8.23174     10.44940     14.64570        -0.321454     -0.471349      0.301141
