ITEM: TIMESTEP
0
ITEM: NUMBER OF ATOMS
144
ITEM: BOX BOUNDS pp pp pp
0.0 12.4883307881 
0.0 12.4883307881
0.0 35.7286733738
ITEM: ATOMS id type x y z fx fy fz
1   2     12.43910     12.33850      0.00543        -0.208387      0.474421     -0.283194
2   2      1.59382      2.25027     35.56890        -0.015837      0.224080      0.564576
3   2      2.07139      0.13897      1.89692         0.162369     -0.072542      0.137311
4   2     12.39995      2.11550      2.24382         0.229079      0.053024     -0.506993
5   2     12.39208     12.45488      4.31240         0.190225      0.118729     -0.798068
6   2      2.18142      2.07082      3.99136        -0.196178     -0.467981      0.344358
7   2      2.07742     12.39834      6.08196         0.101846      0.275359      0.305603
8   2     12.38390      2.02467      6.38038         0.432977      0.453061     -0.076179
9   2     12.36780      0.00193      8.34805         0.289906      0.021316      0.356072
10   2      2.10847      2.12664      8.27354        -0.524785     -0.348723      0.774649
11   2      2.08932     12.45030     10.61650        -0.442559     -0.564865     -0.088601
12   2     12.39058      2.08344     10.51860         0.134964      0.446856     -0.849092
13   2     12.42731      0.30667     12.69410        -0.001759     -1.012798      0.284676
14   2      1.98545      2.25414     12.33350        -0.319403     -0.225186      0.282990
15   2      2.06609      0.53807     14.68780        -1.117330     -0.103598      0.440601
16   2     12.31644      2.25933     14.73340         0.022493     -0.034826     -0.026574
17   2     12.41680      4.51245     35.12883         0.125796     -0.069555      0.679183
18   2      2.30474      6.17159     35.55880        -0.261151     -0.562659     -0.008491
19   2      2.10007      4.22137      2.09895         0.213605     -0.443878     -1.136545
20   2      0.23417      6.33853      2.02584        -0.794958     -0.409539     -0.189345
21   2      0.14907      4.24352      4.16454        -0.337498      0.170909      0.184964
22   2      2.43779      6.26037      3.96777        -0.676126      0.357939      0.249760
23   2      2.09696      4.04573      6.26246        -0.307747      0.317915     -0.398344
24   2     12.36784      6.30900      6.23082         0.469606     -0.341704      0.281839
25   2     12.42600      4.27142      8.36861         0.229055     -0.430971      0.106685
26   2      2.24301      6.23599      8.12701        -0.390295     -0.351237      0.260177
27   2      2.02033      4.43088     10.39590         0.159952     -1.387911     -0.318365
28   2      0.14117      6.33312     10.42030        -1.076364      0.396495      0.319191
29   2     12.41358      4.37204     12.69050        -0.195486     -0.299882     -0.776052
30   2      2.09302      6.27042     12.54600        -0.099287      0.497494      0.170260
31   2      2.06904      4.15377     14.44750        -0.276819     -0.387293      0.856766
32   2     12.47600      6.12418     14.89060        -0.079429      0.259645     -0.132739
33   2      0.23537      8.26194     35.45550        -0.367215      0.012695      0.233395
34   2      2.14645     10.66040     35.60480         0.086742     -0.570708     -0.057397
35   2      2.16222      8.27361      1.74820         0.067320      0.627219      0.197752
36   2     12.44230     10.34480      2.00473         0.198446     -0.180584     -0.325048
37   2      0.05937      8.21452      4.21310        -0.158164     -0.349344     -0.676492
38   2      1.80187     10.30310      4.12188         0.724867      0.432757     -0.297126
39   2      2.25546      8.18988      6.13658        -0.829943      0.012116     -0.548347
40   2     12.34930     10.24670      6.32045         0.747315      0.408509     -0.171699
41   2      0.22347      8.32045      8.47410        -0.423388      0.116147     -0.456563
42   2      2.05240     10.61270      8.34542        -0.133444     -0.362891      0.065298
43   2      2.16280      8.36951     10.50640         0.570837     -0.018896     -0.021262
44   2      0.00637     10.39630     10.59640         0.056244      0.157318     -0.184505
45   2     12.15212      8.24346     12.87850         1.533159     -0.448483      0.379122
46   2      1.84947      9.99374     12.69950         0.244583      0.479098      0.420540
47   2      2.03751      8.10400     14.92760        -0.132725      0.245342     -0.399090
48   2      0.03991     10.65080     15.02980         0.119514      0.094589     -0.682001
49   2      4.57888     12.14180     35.32350         0.077559      0.287941      0.472580
50   2      6.46988      2.02424     35.52700        -0.376214     -0.436756     -0.389658
51   2      6.47980     12.30362      2.01679        -0.698981     -0.056760     -0.723602
52   2      4.34404      1.84331      1.70681        -0.761525     -0.220287     -0.251350
53   2      4.21099     12.45840      4.00074        -0.258144     -0.228357     -0.016925
54   2      6.03805      2.14660      4.01306         0.467899     -0.481735      0.718623
55   2      6.29429     12.46460      6.12985        -0.412771      0.210597     -0.086852
56   2      4.19786      1.96978      6.32075        -0.076478     -0.171913     -0.885620
57   2      4.12716      0.02798      8.30020         0.038895     -0.125858     -0.014364
58   2      6.35256      1.99741      8.24469        -0.323821      0.059902      0.197321
59   2      6.31885     12.44382     10.37770         0.006067      0.106093     -0.035078
60   2      4.15626      1.74160     10.59800         0.489772      0.836931     -0.451734
61   2      4.04653      0.10527     12.88230        -0.429550      0.134628     -2.033695
62   2      6.32662      2.07975     12.67560         0.248653      0.311780     -0.302662
63   2      6.00755      0.12703     14.65400         1.280155     -0.432546      0.975243
64   2      4.23040      2.25684     14.73090         0.064535      0.625401      0.303035
65   2      4.41779      4.07149     35.57250        -0.771462      0.120282     -0.273131
66   2      6.50883      6.21259     35.47210        -0.007398      0.001785      0.118740
67   2      6.16515      3.97129      1.90186         0.606243      0.970618      0.379837
68   2      4.52367      6.23439      1.82281        -0.512692     -0.210930      0.137904
69   2      4.07369      4.07276      4.13135         0.534489      0.134437     -0.044966
70   2      6.25629      6.10485      4.16796        -0.044401      0.124229     -0.908254
71   2      6.23386      4.05983      6.23458         0.432582     -0.154076     -0.103268
72   2      4.34525      6.17107      6.12448        -0.442924      0.067419      0.471422
73   2      4.23581      4.01292      8.23419        -0.075492      0.371874      0.782791
74   2      6.32160      6.16183      8.44461        -0.690797      0.550455     -0.385424
75   2      6.08334      4.09846     10.56390         0.363892     -0.264243     -0.210189
76   2      4.14899      6.15920     10.33540         0.335080      0.665102      0.187584
77   2      4.06880      4.00584     12.48170         0.698044      0.612657     -0.014193
78   2      6.24276      6.26908     12.64120        -0.281944      0.007758      0.401105
79   2      6.39782      4.06650     14.91280        -0.134900      0.040305     -0.327155
80   2      4.08350      5.97180     14.74160         0.558479      0.067295     -0.016678
81   2      4.20301      8.20540     35.46380         0.235977      0.318331      0.064765
82   2      6.91055     10.63100     35.24020        -0.629572     -0.089724      0.269567
83   2      6.12335      8.51889      1.86667         1.365534     -0.021553     -0.432552
84   2      4.15683     10.44900      1.84798        -0.116465      0.637541     -0.239516
85   2      4.13791      8.47675      3.74349         0.095933     -0.207204      1.004585
86   2      6.46147     10.47660      4.05198        -0.663757     -0.852827      0.015364
87   2      6.17260      8.29406      6.19090         0.132575      0.275396     -0.225108
88   2      4.07535     10.29010      5.98239         0.350462      0.557777      0.051880
89   2      4.02366      8.39189      8.18945         0.636108     -0.019715      0.795176
90   2      6.08812     10.38790      8.19423         0.413537     -0.047707     -0.195461
91   2      6.22395      8.29167     10.43420        -0.775194     -0.045260      0.162117
92   2      4.29575     10.45540     10.31600        -0.729626     -0.288752      0.536009
93   2      4.19451      8.11346     12.94020        -0.316371      0.810699     -0.539862
94   2      6.02653     10.58100     12.56650        -0.152266     -1.030037      0.232219
95   2      6.16657      8.56397     14.77290        -0.060712     -0.429063     -0.217725
96   2      3.66210     10.79380     14.75940         0.055176     -1.374891      0.475068
97   2      8.63288      0.18919     35.60890        -0.202624      0.303521     -0.858751
98   2     10.65910      2.25948     35.40520         0.394431     -0.148001      0.376887
99   2     10.35900      0.23593      1.85351         0.766372     -0.057095      1.044612
100   2      8.10320      2.04066      2.10436         1.174401      0.186361      0.098321
101   2      8.44130     12.41940      4.07251         0.390130      0.463898      0.107249
102   2     10.45130      2.20053      4.25527         0.157209     -0.298260     -0.441635
103   2     10.39720      0.01087      6.21785        -0.030763     -0.486221      0.098953
104   2      8.42280      2.00881      6.23686        -0.384280      0.449046     -0.094260
105   2      8.42880     12.44424      8.19066        -0.114479     -0.261587      0.980815
106   2     10.31160      2.13736      8.52776         0.369081      0.211537     -0.160816
107   2     10.40280     12.39068     10.59360        -0.442482     -0.370586     -0.122703
108   2      8.18724      2.06036     10.31530         0.155574      0.099040      0.754275
109   2      8.13389     12.30238     12.64150         0.993932      0.300146      0.181239
110   2     10.24300      2.10528     12.37520        -0.451395     -0.252081      0.778558
111   2     10.33700      0.06607     14.95490         0.432804     -0.686786     -0.529727
112   2      8.53684      2.00765     14.89950        -0.793359      0.266779     -0.480015
113   2      8.48769      3.94990     35.60790        -0.144586      0.585666      0.035757
114   2     10.28630      6.28537     35.54250        -0.022350     -0.165263      0.077670
115   2     10.41600      4.21459      1.94673         0.247093      0.072727      0.030489
116   2      8.16255      6.23937      2.03911         0.096716     -0.089097     -0.212049
117   2      8.39391      4.02688      4.18137        -0.781340      0.027518     -0.313006
118   2     10.23700      6.07652      4.15519         0.762325      0.414808     -0.461350
119   2     10.39220      4.22088      6.33997        -0.021017     -0.115675      0.171509
120   2      8.18851      6.23239      6.14140         0.355971     -0.097178      0.552244
121   2      8.26949      4.29231      8.40582         0.467801     -0.577851     -0.018969
122   2     10.40050      6.23904      8.48406        -0.041744      0.405915      0.185362
123   2     10.21890      4.30753     10.73990         0.433372      0.151802     -0.928150
124   2      8.18166      6.35272     10.56940         0.636397      0.005923     -0.121724
125   2      8.23262      4.32322     12.70120        -0.545256     -0.558621     -0.039260
126   2     10.26040      6.31605     12.76930        -0.278626      0.096395      0.064957
127   2     10.29170      4.15540     14.55180         0.194931     -0.070492      0.718017
128   2      8.30222      6.11230     15.10930        -0.065407      0.411289     -0.478870
129   2      8.33113      8.37085     35.22350         0.331928     -0.519106      0.577130
130   2     10.52640     10.18110     35.50960         0.272511     -0.017699     -0.043240
131   2     10.41240      8.08504      1.92680         0.177768      0.227912      0.143349
132   2      8.68201     10.42140      1.82973        -0.776658     -0.429285      0.021376
133   2      8.35008      8.29990      4.08806        -0.333607      0.206524     -0.363845
134   2     10.46620     10.34110      3.94470        -0.063688     -0.012935      0.434502
135   2     10.41450      8.31536      6.05013        -0.520119     -0.145444      0.489831
136   2      8.26668     10.46930      6.24887         0.476783     -0.646260     -0.240350
137   2      8.41717      8.28175      8.09522        -0.089700      0.053871      0.633223
138   2     10.51050     10.27220      8.35443        -0.555734     -0.001627      0.626344
139   2     10.35840      8.42706     10.78150        -0.234214     -0.159230     -1.018160
140   2      8.09845     10.25770     10.32280         0.900789      0.384237      0.023192
141   2      8.26793      8.43847     12.73400        -0.495038      0.167292     -0.026748
142   2     10.58280     10.40890     12.84280        -0.693443      1.322985      0.065389
143   2     10.11330      8.48425     14.84460         0.020971     -0.347699      0.343365
144   2      8.08130     10.38200     15.15200         0.383806      0.774869     -0.576557
