ITEM: TIMESTEP
0
ITEM: NUMBER OF ATOMS
180
ITEM: BOX BOUNDS pp pp pp
0.0 15.336255 
0.0 14.75731
0.0 29.7984842388
ITEM: ATOMS id type x y z fx fy fz
1   2     15.08500      0.02181     29.52880        -0.008858     -0.430883      0.132785
2   2      2.26573      1.22512     29.73860         0.586182      0.532822     -0.565756
3   2      1.71568     14.52715      2.18239        -0.330271      0.073960      0.490985
4   2      4.24564      1.30621      2.20481        -0.735570      1.066349      0.354258
5   2      0.80178      1.30517      4.82342         0.932405      0.906233     -0.240192
6   2      3.39291     14.68215      4.60274        -0.056225      0.200757      0.482914
7   2      0.03764      0.05052      7.36628         0.613640     -0.149389      0.372233
8   2      2.61132      1.44272      7.21701         0.112979     -0.106391     -0.057274
9   2      1.74384      0.25763      9.89126        -0.335990     -0.622485     -0.740738
10   2      4.22825      1.49626      9.66701         0.345122     -0.082647     -0.456976
11   2      0.94510      1.61451     12.21140        -0.248463     -0.826756      0.166358
12   2      3.52849      0.15435     12.17520         0.068731     -0.349727      0.121086
13   2     15.12940      2.82903     29.77860         0.159397      0.118404     -0.686571
14   2      2.45632      4.07754     29.56280         0.136754      0.388074      0.136556
15   2      1.60135      2.84035      2.23740         0.199916     -0.432983      0.394507
16   2      4.13906      4.41112      2.33517         0.160803     -0.149775     -0.128465
17   2      0.89938      4.27624      4.52069         0.258772      0.400760      0.451100
18   2      3.48543      2.85078      4.74454        -0.797268     -0.146903     -0.010660
19   2      0.01474      2.83017      7.39771         0.162786      0.790254     -0.428752
20   2      2.59480      4.43958      7.19648        -0.285722      0.048343     -0.512009
21   2      1.69650      3.08329      9.67256        -0.154998     -0.130493      0.014332
22   2      4.10713      4.52944      9.67237         0.761325     -0.361270     -0.589376
23   2      0.75712      4.25901     12.23370         0.584030      0.807266      0.108418
24   2      3.51436      3.00369     12.08780        -0.379656     -0.111431      0.259613
25   2      0.02424      5.88470     29.56690        -0.253789     -0.250528      0.130249
26   2      2.49776      7.26202     29.63930         0.527243      0.127085      0.107809
27   2      1.67744      5.72362      2.09721        -0.142521      0.312997      0.529503
28   2      4.39296      7.33583      2.24267        -0.750272      0.518046     -0.091020
29   2      0.88513      7.53403      4.60676        -0.275677     -0.815789      0.517883
30   2      3.33749      6.26356      4.69934        -0.144321     -1.243115      0.029222
31   2      0.13895      5.73123      6.94670        -0.250708      0.113420     -0.087067
32   2      2.56444      7.66796      7.33079        -0.105124     -1.038397     -0.475861
33   2      1.74826      6.00151      9.52306        -0.098019     -0.157675     -0.312913
34   2      4.41999      7.36168      9.67793        -0.513429      0.213157     -0.274019
35   2      1.06478      7.21872     11.90950        -0.227219     -0.017123      0.810316
36   2      3.64781      5.82703     12.07050        -0.542137      0.613259      0.388885
37   2      0.05705      8.74922     29.59580        -0.480946      0.023115      0.152123
38   2      2.29797     10.38020     29.66440         0.743340     -0.273466     -0.364575
39   2      1.70254      8.80497      2.32557         0.480293     -0.274666     -0.298722
40   2      4.26932     10.24980      2.24163         0.290848      0.308545      0.541820
41   2      0.92899     10.30800      4.91151        -0.922270      0.309943     -0.285041
42   2      3.51939      8.97720      4.80968        -0.077865      0.225439     -0.541334
43   2     15.25660      8.70371      7.36604         0.632712      0.393687     -0.498026
44   2      2.64587     10.38860      7.12899        -0.253681      0.579134      0.653537
45   2      1.70943      8.96435      9.64238         0.014201      0.106958      0.137989
46   2      4.27407     10.39060      9.62727        -0.035514     -0.032434     -0.038715
47   2      1.00845     10.44530     12.05390        -0.974623     -0.550600      0.083455
48   2      3.35383      8.81397     12.06870         0.428703      0.044523     -0.080776
49   2     15.22940     11.90970     29.79450        -0.239093     -0.033022     -0.225096
50   2      2.31531     13.24920     29.29690         0.354710     -0.133628      0.329111
51   2      1.80835     11.65460      2.24237        -0.370650      0.565013      0.545404
52   2      4.30034     13.35330      2.27129        -0.437232     -0.690244      0.331287
53   2      0.68876     13.27220      4.63375         0.856823     -0.572161      0.551903
54   2      3.29522     11.82920      4.70634         0.547428      0.246602     -0.179674
55   2     15.32620     11.81410      7.32926         0.191745      0.073771     -0.913656
56   2      2.51482     13.26140      7.15973        -0.088487      0.280415      0.060857
57   2      1.61386     11.87260      9.58362         0.736013      0.134710      0.172741
58   2      4.23925     13.28230      9.90682         0.054701      0.104490     -0.689053
59   2      0.80478     13.43070     12.10680         0.052688     -0.053464      0.249308
60   2      3.27365     11.81310     12.10900         0.856380      0.436063      0.067392
61   2      5.21867      0.02628     29.37200        -0.997776      0.424618     -0.039929
62   2      7.72053      1.63567     29.57640         0.056741     -0.049185     -0.207202
63   2      6.70985      0.20038      2.05015         0.729117     -0.190292      0.650199
64   2      9.31678      1.53298      2.15833        -0.494963     -0.363948      0.188079
65   2      6.03133      1.52552      4.81729        -0.027250     -0.153975     -0.168180
66   2      8.62778      0.01574      4.99187        -0.249401     -0.016403     -0.599095
67   2      5.08842     14.54931      7.08669        -0.290685      1.150273      0.401087
68   2      7.51690      1.37012      7.27236         0.017581      0.601386      0.030895
69   2      6.83359     14.57748      9.69936        -0.405340      0.070844      0.012751
70   2      9.18451      1.45715      9.61242         0.726580     -0.252166     -0.809960
71   2      6.07204      1.58274     12.04470         0.061125     -0.695391      0.035430
72   2      8.64634     14.64478     11.88800        -0.182834     -0.246060      0.297707
73   2      5.02801      2.78702     29.77890         0.058114      0.579442     -0.333352
74   2      7.58090      4.38659     29.43950         0.165827      0.350189      0.403093
75   2      6.76392      3.05340      2.35187         0.209204      0.090213     -0.139936
76   2      9.29384      4.60953      2.27182        -0.427782     -0.573980     -0.034701
77   2      5.78048      4.35296      4.65993         0.267566      0.697032      0.079222
78   2      8.65973      2.81345      4.67403        -0.204035      0.491511     -0.264772
79   2      5.05028      3.11668      7.27485        -0.050380     -0.569874     -0.039747
80   2      7.49363      4.40107      6.90968         0.462917     -0.031514      0.515042
81   2      6.72150      2.91656      9.60898         0.205080      0.141671     -0.439391
82   2      9.41771      4.64124      9.31589         0.015798     -0.399161      0.168676
83   2      5.98914      4.36119     11.92420         0.769106      0.504021      0.194982
84   2      8.70305      2.87222     11.86650        -0.054879      0.673621      0.453022
85   2      5.15977      5.85737     29.64520        -0.305517     -0.027411      0.100443
86   2      7.51942      7.58943     29.63540         0.058939      0.083626      0.144800
87   2      6.76320      6.06992      2.27678         0.524706     -0.449776      0.018102
88   2      9.36600      7.45612      2.23942        -0.129288      0.234210      0.166500
89   2      5.94082      7.39087      4.81651        -0.158853     -0.181657     -0.496571
90   2      8.38743      5.82465      4.65741         0.080740     -0.118590     -0.058188
91   2      4.99367      6.05922      7.14253        -0.185053     -0.553783      0.120191
92   2      7.49515      7.39343      7.27029         0.981844     -0.336049     -0.407241
93   2      6.92883      5.81789      9.50638        -0.255706     -0.071181      0.311049
94   2      9.61278      7.42885      9.56145        -0.221688      0.092505     -0.061896
95   2      6.07496      7.48751     11.93700         0.174258     -0.530028      0.552353
96   2      8.75196      5.91463     11.95840        -0.278260     -0.052524     -0.138995
97   2      5.11726      9.06625     29.73070         0.061481     -0.159218     -0.227247
98   2      7.73364     10.51350     29.41770        -0.431836     -0.218378      0.477621
99   2      7.10213      9.14949      2.56957        -1.280282     -0.085999     -1.124400
100   2      9.45492     10.49070      2.24670        -0.215966     -0.321735      1.595077
101   2      5.98186     10.40970      4.90173        -0.233797      0.454513     -0.320390
102   2      8.39047      8.69136      4.83267         1.135093      0.277972      0.561628
103   2      5.13610      8.91711      7.21909         0.018181      0.446751      0.298620
104   2      7.77274     10.30230      7.13202        -0.053389      0.252778      0.486060
105   2      6.87479      8.75091      9.58881         0.481531      0.571147      0.131009
106   2      9.50472     10.27750      9.62600         0.163604     -0.800524      0.013168
107   2      5.89800     10.28750     12.02770        -0.128473     -0.099244      0.192561
108   2      8.58860      8.86329     12.23310        -0.238879     -0.180232     -0.346712
109   2      5.03698     12.05560     29.77130        -0.110014     -0.873069     -0.488006
110   2      7.51970     13.42970     29.47400         0.834972     -0.447078      0.033143
111   2      6.75387     12.07130      2.38729        -0.243377     -0.991999     -0.229004
112   2      9.13160     13.34400      2.38628         0.481526      0.968116      0.544484
113   2      6.13377     13.45100      4.71918        -0.404337     -0.227304      0.069489
114   2      8.49866     11.81160      4.75754         0.255804     -0.169670     -0.047846
115   2      5.10407     11.89870      7.28644         0.291093     -0.763692      0.103527
116   2      7.73430     13.33950      7.32951        -0.161917     -0.760696     -0.155679
117   2      7.02170     11.61290      9.73031        -0.380850      0.337920     -0.678601
118   2      9.66386     12.98720      9.39219        -0.413501      0.741593      0.742998
119   2      6.04347     13.13670     12.17790        -1.230939      0.963318     -0.135489
120   2      8.29687     11.85120     12.23900         1.696292     -0.818574      0.102653
121   2     10.07640      0.01604     29.46940         0.090734      0.366861      0.233478
122   2     12.62070      1.40566     29.65860        -0.189211      0.167946      0.042322
123   2     11.77520     14.61508      2.30616        -0.167811      0.359439     -0.260124
124   2     14.24390      1.28509      2.39874         0.254888      0.141130      0.080973
125   2     11.15960      1.40687      4.90842         0.137871      0.566557     -0.413360
126   2     13.72630      0.12518      5.04658        -0.799263      0.064832     -0.530280
127   2     10.35710     14.66078      7.24534        -0.027298      0.417129      0.222041
128   2     12.75930      1.72769      7.32361        -0.144464     -0.795731     -0.032245
129   2     11.92630      0.00345      9.68287         0.020970      0.000257      0.238763
130   2     14.33860      1.55653      9.77442         0.290420     -0.443262     -0.205613
131   2     11.06580      1.19730     12.22090         0.386740      0.280598     -0.284065
132   2     13.57560     14.60850     12.64010        -0.000052     -0.025935     -0.783037
133   2     10.45350      3.26850     29.64810        -0.990420     -0.278971     -0.299842
134   2     12.81320      4.59895     29.69690         0.304569      0.241355     -0.468238
135   2     11.63750      2.86527      2.34073         0.626090     -0.219622      0.431750
136   2     14.22010      4.03442      2.25717         0.471016      1.055491      0.420223
137   2     11.23330      4.37688      4.80995        -0.634212     -0.444001      0.016917
138   2     13.70530      2.99788      4.77655        -0.027350     -0.397443      0.582340
139   2     10.07830      2.91890      7.12340        -0.069978      0.051494      0.333274
140   2     12.68120      4.41789      7.55367         0.364213      0.606165     -0.871911
141   2     11.68580      3.00564      9.72501        -0.079318     -0.673610      0.382356
142   2     14.55060      4.52682      9.87167         0.414136     -0.604064     -0.526784
143   2     11.23750      4.46733     12.17590        -0.377949     -0.262222      0.170325
144   2     13.56330      2.80959     12.05390        -0.224904     -0.094965      0.649236
145   2      9.96377      6.14904     29.64510         0.254061     -0.173408     -0.145355
146   2     12.64530      7.67116      0.17832         0.469738     -0.655602     -0.623373
147   2     11.86080      5.72303      2.26631         0.114718      0.643643      0.026400
148   2     14.49010      7.23764      2.28417         0.053349     -0.107861      0.084707
149   2     11.01740      7.25004      4.58537         0.012800      0.061478      0.252203
150   2     13.57620      5.80315      4.62418         0.701232      0.326973      0.360656
151   2     10.19740      5.96486      6.88665        -0.162621     -0.319495      0.668245
152   2     12.97630      7.23364      7.39699        -0.543379     -0.628987     -0.900790
153   2     12.17640      5.82654      9.88199        -0.934843      0.356424      0.108444
154   2     14.59610      7.32113      9.80964         0.324981      0.200806     -0.002260
155   2     11.26220      7.35397     12.28830        -0.008757      0.040246     -0.173527
156   2     13.79660      5.75951     12.48170        -0.246813      0.491097     -0.314224
157   2     10.37870      9.19432      0.03682        -0.624685     -0.509604     -0.668943
158   2     12.79160     10.54920     29.63320         0.152817     -0.092354      0.307389
159   2     11.92150      8.87133      2.54378         0.394232      0.285495     -0.181056
160   2     14.58980     10.16980      2.27191        -0.412126      0.321879      0.407383
161   2     11.12850     10.17580      4.84662        -0.038392      0.300290     -0.436726
162   2     13.66780      8.64006      4.91861        -0.070398      0.438278     -0.206214
163   2     10.32650      8.73819      7.05465        -0.095455      0.068121      0.604783
164   2     12.87330     10.35210      7.17079        -0.203778     -0.301597     -0.349069
165   2     12.18100      8.60168      9.60165        -0.975951      1.031326      0.387285
166   2     14.42730     10.37860      9.58122         0.831665     -0.484760      0.569647
167   2     10.97650     10.18330     12.33950         0.350859      0.283010     -0.360804
168   2     13.69680      8.97438     12.09260         0.030542     -0.857201      0.095568
169   2     10.05420     12.02380      0.19892         0.714030      0.384350     -1.554288
170   2     12.56660     13.32560     29.50290         0.252540      0.020847      0.262488
171   2     12.05690     11.80550      2.58537        -0.068256     -0.335723     -0.698060
172   2     14.46670     13.34860      2.38224        -0.304999     -0.726600     -0.364222
173   2     11.09520     13.41340      4.71658        -0.375814     -0.484576      0.273117
174   2     13.49430     12.06020      4.91862         0.628764     -0.916615      0.149698
175   2     10.30820     11.71710      6.97606         0.055416      0.084504      0.225632
176   2     12.94440     13.46350      7.33378        -0.552143     -0.396437      0.335918
177   2     12.06210     11.60620      9.52953        -0.493527      0.490901      0.408334
178   2     14.56530     13.31220      9.74604        -0.490132      0.466404      0.189693
179   2     11.14110     13.00020     12.07050        -0.017935      0.119959     -0.108863
180   2     13.74000     11.63260     12.21550        -0.222806      1.050306     -0.065075
