ITEM: TIMESTEP
0
ITEM: NUMBER OF ATOMS
180
ITEM: BOX BOUNDS pp pp pp
0.0 15.336255 
0.0 14.75731
0.0 29.7984842388
ITEM: ATOMS id type x y z fx fy fz
1   2      0.08565      0.05233     29.76950        -0.186416     -0.774139     -0.051240
2   2      2.67728      1.29034     29.77320        -0.070546      0.296134      0.045162
3   2      1.70254      0.08317      2.51167         0.307728     -0.799430     -0.193867
4   2      4.31057      1.38382      2.47268         0.068239      0.148054      0.009303
5   2      0.80568      1.49311      4.91038         0.158840     -0.323057      0.018969
6   2      3.38863     14.60714      4.79610         0.109398      0.236339      0.066231
7   2     15.22060     14.73806      7.35757         0.180712      0.332167     -0.188872
8   2      2.50291      1.41139      7.15116        -0.025379     -0.124208      0.779691
9   2      1.62631      0.19119      9.68995        -0.256128     -0.387296      0.076520
10   2      4.10896      1.41425      9.92504         0.260127      0.668383     -0.852148
11   2      0.84525      1.74899     12.48780        -0.035371     -0.331479     -0.541664
12   2      3.33275      0.15993     12.24070        -0.181781     -0.323675      0.190589
13   2      0.11635      2.80034     29.77420         0.169177      0.480148     -0.061559
14   2      2.61859      4.48055     29.70480        -0.070354     -0.338818      0.046450
15   2      1.77594      2.89539      2.51031         0.100771     -0.484140      0.000473
16   2      4.27497      4.28647      2.48036         0.044004     -0.206370     -0.034926
17   2      0.75634      4.40133      4.96566         0.893869      0.136033     -0.072183
18   2      3.47801      2.92082      5.08453        -0.634788      0.496568     -0.833078
19   2     15.31250      2.94407      7.28706        -0.052986     -0.125240     -0.022644
20   2      2.58023      4.50691      7.41247         0.081134      0.219115     -0.489442
21   2      1.65761      3.06470      9.63014         0.318168     -0.030323      0.258480
22   2      4.37996      4.50250      9.67263        -0.367639     -0.015052     -0.597249
23   2      0.88313      4.59429     12.23020        -0.223503      0.479685     -0.221446
24   2      3.32298      3.20599     12.01460         0.181764      0.019273      0.214615
25   2     15.29510      5.86898     29.79530         0.171739     -0.275835     -0.042974
26   2      2.40751      7.36682     29.64390         0.445178     -0.087243      0.183567
27   2      1.80080      5.57523      2.41758        -0.533078      1.188875     -0.089383
28   2      4.23409      7.29503      2.22007         0.088237      0.177320      0.287780
29   2      0.82888      7.30326      4.79569        -0.008932      0.371950      0.196926
30   2      3.25424      5.93301      4.80209         0.630838     -0.195142      0.292436
31   2     15.23570      6.02948      7.22468         0.458454     -0.722005      0.006574
32   2      2.67677      7.74790      7.15605        -0.174599     -1.169914      0.097663
33   2      1.62728      6.00647      9.63469         0.170809      0.356054      0.264574
34   2      4.31491      7.45982      9.59352        -0.675525      0.132078     -0.019109
35   2      0.95867      7.69641     12.12840        -0.185365     -0.372392     -0.315140
36   2      3.57959      6.19756     12.22350        -0.880712     -0.475972     -0.368354
37   2     15.28830      8.66375     29.60070        -0.076718      0.420263      0.111511
38   2      2.41419     10.37840      0.00592         0.213623     -0.842277     -0.165583
39   2      1.67394      8.69784      2.35011         0.241771      0.167702      0.178255
40   2      4.23186     10.42540      2.28520        -0.134671     -0.413896      0.435571
41   2      0.78449     10.20960      4.86946         0.033714     -0.102758     -0.411295
42   2      3.51583      8.81112      4.69442        -0.204103     -0.075384     -0.325004
43   2     15.23520      8.70061      7.34855         0.375154      0.923471     -0.275674
44   2      2.43507     10.46020      7.12122         0.057362      0.174014      0.453625
45   2      1.72588      9.01665      9.54730        -0.076735     -0.203319      0.396384
46   2      4.22120     10.53560      9.56025         0.122983     -0.365463      0.289721
47   2      1.00446     10.54770     12.31420        -0.310296     -0.384558     -0.315952
48   2      3.44603      9.09145     12.01840         0.073998     -0.210034      0.056503
49   2     15.27550     11.61070     29.54700         0.024317      0.448330      0.134932
50   2      2.51300     13.11590     29.58400        -0.115974      0.656367      0.157670
51   2      1.57129     11.88580      2.28346         0.244948     -0.008321      0.408915
52   2      4.36125     13.34170      2.15232        -0.543960     -0.070920      0.406511
53   2      0.79755     13.17440      4.80889         0.047057      0.255383     -0.076834
54   2      3.36421     11.76330      4.81412         0.056271     -0.080339     -0.556996
55   2     15.27940     11.87820      7.23472         0.015614     -0.172220      0.237270
56   2      2.55068     13.30080      7.22492        -0.453548      0.243627      0.295074
57   2      1.74277     11.92270      9.77229        -0.092908      0.071694     -0.403751
58   2      4.32664     13.38150      9.83943        -0.093254     -0.024764     -0.057052
59   2      0.85386     13.28390     12.11300        -0.018746      0.754222      0.184358
60   2      3.59093     11.94170     12.14940        -0.287795      0.188313      0.258004
61   2      5.11772     14.69722     29.51000         0.153189     -0.143832      0.186593
62   2      7.67033      1.32177     29.65640         0.272738     -0.246233     -0.215003
63   2      6.96010     14.67906      2.34512        -0.617208      0.312402     -0.633821
64   2      9.48164      1.47214      2.11051         0.137928     -0.379506      0.424767
65   2      5.85023      1.49211      4.90488         0.299647     -0.422927     -0.436306
66   2      8.34471     14.62633      4.63317         0.968145      0.269160      0.567536
67   2      5.11569     14.73496      7.43562        -0.110036      0.041742     -0.340327
68   2      7.67783      1.23953      7.04253        -0.320949      0.385051      0.259960
69   2      6.81335      0.11175      9.73263         0.087507     -0.818548     -0.491342
70   2      9.40109      1.47578      9.42016         0.249013     -0.208391      0.547305
71   2      6.17817      1.77731     11.77730        -0.331253     -0.261812      1.288938
72   2      8.57151     14.58390     11.92660        -0.133667      0.220307      0.518546
73   2      5.23023      2.83564      0.07092        -0.662133     -0.276253     -0.345590
74   2      7.72170      4.16365     29.77300         0.482333      0.548619     -0.209410
75   2      6.94284      2.75025      2.33806        -0.231983      0.189123      0.554219
76   2      9.43240      4.39811      2.40458        -0.321375     -0.314384     -0.607032
77   2      5.91717      4.45170      4.75920        -0.018442     -0.070489      0.284589
78   2      8.38913      2.97755      4.77128         0.185577     -0.264576     -0.212254
79   2      5.11635      2.80913      7.31324        -0.035908      0.458711      0.477687
80   2      7.53854      4.51217      7.16520         0.217629     -0.030726      0.046939
81   2      6.95011      2.89164      9.42761        -0.215181      0.787056     -0.396113
82   2      9.43078      4.33779      9.48293         0.088313      0.549862     -0.145041
83   2      6.03521      4.59308     11.83890         0.064324      0.073247      0.484936
84   2      8.61212      3.19101     11.88330        -0.593204     -0.926360      0.301454
85   2      5.22423      5.65121     29.78950        -0.313081      0.462327     -0.339088
86   2      7.49176      7.40755     29.66960         0.123129     -0.045289      0.107173
87   2      6.72516      5.68832      2.32644         0.540582      0.435686      0.049358
88   2      9.26382      7.26678      2.19849         0.169386      0.134059      0.214453
89   2      6.19552      7.29793      4.67054        -0.848252      0.437375      0.045105
90   2      8.59077      5.94045      4.71923         0.357858     -0.163615      0.153941
91   2      5.09537      5.98911      7.09203        -0.179317      0.069930      0.135363
92   2      7.78534      7.46006      7.14262        -0.356011     -0.329601     -0.197955
93   2      6.80066      6.24237      9.53761         0.186737     -0.769128     -0.121143
94   2      9.28136      7.53312      9.58669         0.289172     -0.476351      0.611098
95   2      5.93302      7.49897     12.08840         0.545381      0.251053     -0.027420
96   2      8.55067      5.93338     11.97690         0.109234      0.619401     -0.076501
97   2      4.95735      8.81435     29.68160         0.120850     -0.079085      0.156110
98   2      7.53256     10.37610     29.51460        -0.009925     -0.399395      0.216582
99   2      6.98916      8.91362      2.36449        -0.826308     -0.207150     -0.194034
100   2      9.36226     10.36120      2.23933         0.016229     -0.596198      0.383025
101   2      5.85853     10.27700      4.75359         0.113612      0.054294     -0.130838
102   2      8.60047      8.91621      4.73595         0.202167     -0.377056     -0.176024
103   2      5.22147      8.99566      7.30714        -0.277505     -0.194326     -0.416810
104   2      7.65369     10.29740      6.99558         0.316328      0.303002      0.647778
105   2      6.82689      9.09450      9.63698         0.032336      0.148787     -0.133297
106   2      9.41928     10.48340      9.55443        -0.274376     -0.417876      0.223235
107   2      6.00470     10.37960     12.08150        -0.103571      0.126263      0.190225
108   2      8.46740      8.87580     12.05910         0.177873     -0.318060      0.069780
109   2      5.02232     11.72170     29.68550         0.235029      0.126734     -0.342824
110   2      7.66336     13.20360     29.71940        -0.385282      0.369379     -0.567530
111   2      6.82127     11.80980      2.29865        -0.389147     -0.425736     -0.192168
112   2      9.36581     13.14540      2.23739         0.405188      1.015538      0.847852
113   2      5.91303     13.24300      4.63956        -0.540493     -0.023925      0.578299
114   2      8.35032     11.77190      4.65926         0.808561      0.012456      0.263933
115   2      4.99139     11.94460      7.29637         0.704962     -0.212390     -0.421185
116   2      7.73678     13.09020      7.18312        -0.189561      0.130425     -0.077873
117   2      6.87599     11.96190      9.72744        -0.398370     -0.147703     -0.146580
118   2      9.33270     13.25370      9.60835         0.619910      0.362241     -0.246791
119   2      6.05844     13.26640     12.55700         0.063480      0.135348     -0.659837
120   2      8.55911     11.64480     12.17330         0.074101      0.595739     -0.005402
121   2     10.35890     14.66668     29.45370        -0.115879      0.191566      0.280070
122   2     12.76780      1.52492     29.68870         0.355886     -0.567821     -0.211383
123   2     12.01080     14.59072      2.14227        -0.403887     -0.009137      0.131490
124   2     14.62840      1.37362      2.42318        -0.496621      0.090192     -0.339252
125   2     10.95520      1.18175      4.74981        -0.534802      0.617626     -0.563807
126   2     13.59420      0.09953      4.66236         0.239921     -0.474634      0.279170
127   2     10.12300     14.71761      7.22871         0.667068     -0.649851     -0.417601
128   2     12.69180      1.57424      6.92060         0.142297     -0.035374      0.791042
129   2     12.10290      0.06878      9.53874        -0.345323     -0.135897     -0.066942
130   2     14.47740      1.74767      9.80910         0.324158     -0.877955     -0.317322
131   2     10.93730      1.43526     11.93660         0.245971     -0.141373     -0.033779
132   2     13.60930      0.18483     12.05860         0.094498     -0.235679      0.072688
133   2     10.32220      2.91381     29.53750        -0.198402      0.134263      0.126279
134   2     12.87690      4.31720     29.73930        -0.302498      0.306291     -0.163083
135   2     12.02160      2.66764      2.39996        -0.146805      0.482556      0.174034
136   2     14.50070      4.28738      2.25353        -0.004676      0.207828      0.226502
137   2     11.04840      4.35580      4.59816         0.320250     -0.021050      0.468633
138   2     13.71320      3.03004      4.71904        -0.509093     -0.603919     -0.149441
139   2     10.10590      2.89982      6.97910         0.259402      0.138957      0.171398
140   2     12.81930      4.50094      7.02244        -0.294278     -0.298642      0.406763
141   2     11.98260      2.92879      9.51510        -0.243713      0.396530     -0.227800
142   2     14.51620      4.51525      9.54557        -0.450200      0.652436      0.334507
143   2     11.02130      4.30550     12.09380         0.518082      0.560983     -0.107334
144   2     13.62100      3.10878     12.12050         0.078638     -0.411739      0.209492
145   2     10.20030      5.85260     29.61700        -0.148839     -0.080385      0.036644
146   2     12.75590      7.34477     29.76110        -0.055267     -0.077521     -0.248178
147   2     11.83070      5.91668      2.18847         0.297706     -0.151423      0.482475
148   2     14.50720      7.32015      2.51265         0.021352     -0.151827     -0.927042
149   2     11.15900      7.40225      4.74053        -0.487863     -0.558492      0.046737
150   2     13.62990      5.78098      4.58684        -0.476280      0.503060      0.382941
151   2     10.25320      5.73087      7.20009        -0.123085      0.400895     -0.337580
152   2     12.71070      7.34804      7.33966         0.119581     -0.139678     -0.466284
153   2     11.85680      5.98286      9.66490         0.054465     -0.387167      0.255778
154   2     14.35940      7.50796      9.83986         0.407913     -0.485225      0.175550
155   2     11.03590      7.49845     12.08700        -0.039843     -0.479881     -0.054040
156   2     13.37590      5.78169     12.41270         0.331337      0.789108     -0.555340
157   2     10.06460      8.89126     29.68020         0.150152     -0.177572     -0.037709
158   2     12.83760     10.23300     29.63350        -0.283337     -0.048789     -0.211669
159   2     11.91170      8.88342      2.24523        -0.250591     -0.514841      0.025515
160   2     14.52000     10.18350      2.29130         0.196914      0.173021      0.136114
161   2     11.07370     10.25080      4.67743        -0.173980      0.557157      0.171374
162   2     13.51660      8.80894      4.68580         0.677826     -0.109452      0.389884
163   2     10.29130      8.71508      7.35723        -0.101657      0.367807     -1.051633
164   2     12.91620     10.22570      7.11833        -0.080363      0.119036      0.223761
165   2     11.90510      8.95454      9.63374         0.056568      0.085138      0.197601
166   2     14.45320     10.42990      9.72615         0.307963     -0.102289     -0.211438
167   2     11.07760     10.30070     12.08670        -0.288978      0.569780      0.103924
168   2     13.52460      9.03197     12.09670         0.575541     -0.472901      0.220288
169   2     10.10100     11.85040     29.75050         0.509570     -0.440571     -1.087115
170   2     12.91700     13.17890     29.49880        -0.033793      0.199645      0.245031
171   2     11.89300     11.66370      2.13210         0.237082      0.429374      0.461772
172   2     14.33130     13.06390      2.47487         0.496350      0.367197     -0.485740
173   2     11.19890     13.19030      4.66211        -0.488989     -0.498166     -0.052203
174   2     13.64430     11.69180      4.78450        -0.148545      0.063801      0.096991
175   2     10.48690     11.56470      7.21024        -0.767624      0.637112     -0.892184
176   2     12.75350     13.38710      7.09127        -0.096242     -0.095423      0.052365
177   2     11.95540     11.90370      9.50902         0.228066      0.180838      0.566930
178   2     14.51430     13.27580      9.73533        -0.005566      0.300464     -0.061639
179   2     11.10010     13.24880     12.22220         0.040051      0.009907     -0.396240
180   2     13.60180     11.85270     12.15890         0.032318      0.298135     -0.058091
