ITEM: TIMESTEP
0
ITEM: NUMBER OF ATOMS
144
ITEM: BOX BOUNDS pp pp pp
0.0 12.4883307881 
0.0 12.4883307881
0.0 35.7286733738
ITEM: ATOMS id type x y z fx fy fz
1   2      0.04410     12.22944     35.35250        -0.337579     -0.138064      0.102032
2   2      2.01445      1.87965     35.31780        -0.133009      0.279175      0.186132
3   2      2.01867     12.30976      1.58598         0.538876     -0.224076      0.610668
4   2      0.06327      1.69125      1.98253        -0.248743      0.546695     -0.191224
5   2     12.40593     12.26165      4.22170        -0.079399      0.541778     -0.004678
6   2      2.05814      1.89757      3.94288         0.135510     -0.128086     -0.140096
7   2      2.19881     12.32149      6.33592        -0.328250      0.165550     -0.314090
8   2      0.13177      2.09747      6.11237         0.049457     -0.908883      0.012461
9   2      0.03187      0.11957      8.36877        -0.149417     -0.095918      0.125424
10   2      2.34965      2.00064      8.33949        -0.492723      0.452403     -0.079784
11   2      2.10136     12.46272     10.44300         0.065401     -0.087063      0.100236
12   2      0.20127      2.25286     10.36190        -0.347767     -0.501910     -0.215555
13   2      0.03877      0.04982     12.53260        -0.024305      0.277413      0.160210
14   2      2.10648      2.14932     12.39480         0.333144     -0.427087      0.473944
15   2      2.19120      0.09567     14.95970        -0.226398      0.276838     -0.333157
16   2      0.34045      2.32889     14.69750        -0.317646     -0.430920     -0.152695
17   2     12.11576      4.12719     35.66490         0.620010      0.258991     -0.225472
18   2      1.95948      6.16116     35.66240        -0.161593      0.099210     -0.341663
19   2      2.01530      3.99059      1.76157        -0.251581     -0.189121     -0.050517
20   2     12.38460      6.09292      1.94219        -0.041088      0.150682     -0.237107
21   2      0.16988      4.04207      3.96994        -0.468682     -0.181668     -0.061014
22   2      1.94396      6.15691      3.97049         0.498744      0.226110      0.460729
23   2      1.86509      4.20391      6.28788         1.175086      0.188509     -0.169868
24   2     12.41790      6.28249      6.13416         0.103943     -0.325910      0.155444
25   2     12.38711      4.19374      8.26589         0.888136      0.242480      0.147788
26   2      2.19658      6.08568      8.44804        -0.453135      0.640340     -0.297293
27   2      2.23714      4.23890     10.48170        -0.129334     -0.048053      0.151560
28   2     12.33220      6.26841     10.54870         0.693717     -0.263990     -0.150707
29   2      0.10166      4.15214     12.54060        -0.273746      0.497047      0.332404
30   2      2.19093      6.15720     12.93380         0.014766      0.160614      0.114144
31   2      2.22014      4.30674     15.18900        -0.011147      0.429020     -0.531187
32   2     12.45950      6.27488     14.88770         0.029782     -0.070642     -0.482262
33   2     12.41569      8.29114     35.44140         0.403057      0.467594      0.332164
34   2      2.24267     10.15980     35.39468        -0.398961      0.177950      0.183663
35   2      1.97720      8.25413      1.93331        -0.030445      0.077244     -0.024907
36   2      0.03806     10.30280      1.95763        -0.328416      0.210890     -0.454250
37   2     12.39283      8.30229      4.08417         0.547650     -0.154583      0.315939
38   2      1.85753     10.30240      4.14113         0.876651     -0.014047     -0.023595
39   2      1.97760      8.14417      6.23472         0.402055      0.279911      0.080905
40   2      0.06847     10.41030      6.47027        -0.058263     -0.205945     -0.875668
41   2      0.12837      8.30770      8.55022        -0.107037     -0.533102     -0.419580
42   2      2.00769     10.36300      8.46658         0.528442      0.231628      0.327048
43   2      1.91161      8.14202     10.83100         0.730949      0.167828     -0.062991
44   2     12.48126     10.28320     10.64730         0.087148      0.699583      0.095674
45   2     12.42020      8.36883     12.86720         0.097758     -0.106046      0.178912
46   2      2.18803     10.67790     12.76800        -0.308297      0.156582     -0.712616
47   2      2.14017      8.72533     14.62200         0.042735     -0.901279      0.701578
48   2      0.03657     10.56620     14.72840        -0.074955      0.152899      0.174320
49   2      4.22292     12.47322     35.49460         0.074778     -0.393578     -0.232882
50   2      6.16164      2.20018     35.59030         0.092876     -0.287418     -0.537314
51   2      6.22250      0.03497      1.81229        -0.193345     -0.369819      0.227182
52   2      4.05095      2.04111      1.66689        -0.221986     -0.027691      0.721634
53   2      4.10350     12.33937      3.93001        -0.249266     -0.088262      0.023560
54   2      5.99272      1.90461      3.98035         0.357190      0.608405      0.093799
55   2      6.28302      0.28848      6.54906         0.156993     -0.574425     -0.942126
56   2      3.93783      1.99526      6.00062         0.544624      0.522402      0.154277
57   2      4.27290     12.42010      8.34721        -0.471103     -0.428294     -0.041480
58   2      6.36427      2.40632      8.28465         0.249638     -0.416528     -0.383199
59   2      6.16651      0.00342     10.47470         0.896165     -0.513185      0.556614
60   2      4.44177      2.03662     10.28800        -1.060461      0.369106      0.644844
61   2      4.18647      0.15587     12.62860         0.360401      0.258328      0.090562
62   2      6.43744      2.13703     12.61470        -0.600635     -0.115106      0.494676
63   2      6.40817      0.16407     14.82090        -0.120401      0.079301     -0.367509
64   2      4.05731      2.24138     14.71660         0.244541     -0.374088      0.062074
65   2      3.96065      4.09149     35.30710         0.069232      0.131056      0.324209
66   2      6.03515      6.25339     35.58930         0.165314     -0.870203     -0.148100
67   2      6.10992      4.19878      1.84554        -0.097147      0.073286      0.590289
68   2      3.95764      6.18264      1.95244         0.425223     -0.068090     -0.034489
69   2      4.12518      4.12016      3.88345        -0.096652     -0.112468      0.557668
70   2      6.27658      6.31288      3.93721        -0.123660     -0.355385      0.170602
71   2      6.30631      4.19202      6.04529        -0.208595      0.060871     -0.132344
72   2      4.24972      6.26990      6.17432        -0.229341     -0.336018      0.046424
73   2      4.29495      4.25195      8.38412        -0.477191     -0.228160     -0.523328
74   2      6.22685      6.21201      8.41534         0.191008      0.474859      0.010088
75   2      6.30241      4.10982     10.51820         0.020727      0.815452      0.222648
76   2      4.18355      6.31315     10.62450         0.097994      0.275307      0.072834
77   2      4.21591      4.01156     12.60400        -0.069165      0.464726     -0.122486
78   2      5.97897      6.25915     12.85960         0.341815      0.625482     -0.832420
79   2      6.30311      4.28426     14.64870        -0.104170     -0.626084      0.437530
80   2      4.25519      6.40046     15.06540        -0.340615      0.022219     -0.299955
81   2      4.22390      8.24523     35.70460        -0.887108      0.054554     -0.592241
82   2      6.14603     10.26630     35.52590         0.186953      0.492699     -0.040137
83   2      6.20632      8.31204      1.86067         0.251205     -0.400302      0.506845
84   2      4.05864     10.31810      1.98090        -0.083352      0.123832     -0.066838
85   2      4.12906      8.20603      4.07793        -0.121769      0.180425     -0.037241
86   2      6.28029     10.34040      3.84831        -0.823194      0.058082      0.814604
87   2      6.36635      8.19770      6.35542        -0.315851      0.540661     -0.117626
88   2      4.15548     10.31790      5.96810         0.451466     -0.223274      0.518745
89   2      3.94745      8.37031      8.38859         0.583537     -0.034319      0.021960
90   2      6.28249     10.42620      8.52923        -0.058096     -0.510844     -0.587714
91   2      6.20062      8.48567     10.71090         0.119923     -0.677483     -0.681329
92   2      4.19707     10.41630     10.61850        -0.547271      0.160297     -0.425476
93   2      4.22248      8.64756     12.80080        -0.754582     -1.367125     -0.051570
94   2      6.28871     10.30610     12.86230         0.831703      1.550281     -0.181812
95   2      6.36160      8.37980     14.84820         0.140251     -0.251849      0.157626
96   2      4.30216     10.72240     14.85880         0.073942     -0.017559      0.120622
97   2      8.14986     12.37349     35.53770         0.315003     -0.024457      0.114603
98   2     10.58170      1.88682     35.63050        -0.439034     -0.417230      0.095613
99   2     10.40080     12.29470      1.94748        -0.311076      0.045135      0.053740
100   2      8.26798      2.03226      1.80406         0.224777     -0.413336      0.535178
101   2      8.05204     12.44037      4.12106         0.559972      0.216373     -0.006215
102   2     10.48920      2.00642      4.05084        -0.154154     -0.954697     -0.153469
103   2     10.23780     12.37139      6.23100         0.489073      0.541784     -0.014432
104   2      8.39015      2.16472      5.99131        -0.650490     -0.381235      0.247924
105   2      8.36972      0.05737      8.47929         0.360180      0.016120     -0.140981
106   2     10.55150      2.18210      8.07679        -0.747480     -0.968724      0.830601
107   2     10.47900      0.27697     10.57280         0.098747     -0.427209     -0.429678
108   2      8.26183      2.02047     10.50300         0.538901      0.341390     -0.241007
109   2      8.37306      0.07287     12.68200        -0.012192     -0.147200     -0.153825
110   2     10.40850      2.20437     12.68360         0.346392      0.040045      0.032153
111   2     10.55820      0.11207     14.68700         0.049398      0.412104     -0.006694
112   2      8.39508      2.32925     14.76960        -0.169062     -0.371769     -0.174661
113   2      8.19199      4.18155      0.04703         0.476012      0.355798     -0.495148
114   2     10.30130      6.60996     35.55570         0.088296     -0.748123     -0.094500
115   2     10.38090      3.89384      2.06825        -0.009579      0.458608     -0.460166
116   2      8.42000      6.32545      1.86367        -0.296393     -0.074733      0.301030
117   2      8.33924      4.25570      3.94589        -0.705060     -0.448711     -0.034612
118   2     10.43130      6.07965      4.06492         0.213608      0.226538     -0.279399
119   2     10.43520      3.96162      6.02605         0.212529      1.254535      0.006265
120   2      8.48593      6.22454      6.13881        -0.570519     -0.289566      0.277172
121   2      8.42364      4.26862      8.39406         0.272027      0.105058     -0.145416
122   2     10.52780      6.23380      8.22376        -0.519078      0.419033      0.263667
123   2     10.54340      4.13674     10.38730        -0.729871     -0.172137      0.283475
124   2      8.16937      6.33104     10.54020         0.120090      0.370292     -0.468542
125   2      8.42152      4.36829     12.41930        -0.231245     -0.523154      0.101098
126   2     10.41350      6.46714     12.53690         0.004993     -0.513162      0.496830
127   2     10.22920      4.41118     14.54150         1.486237     -0.650661      0.250258
128   2      8.36586      6.23660     14.66180        -0.888718      1.060708      0.204363
129   2      8.03484      8.11709     35.30170         0.210000      0.660470      0.202844
130   2     10.17620     10.36200     35.52960         0.249706     -0.274249      0.213908
131   2     10.51800      8.28200      2.12137        -0.539638      0.228505     -0.626136
132   2      8.29292     10.21450      1.97060         0.475469      0.501780     -0.670472
133   2      8.25492      8.36288      4.09533         0.061659     -0.402259      0.156242
134   2     10.30290     10.35110      4.14687        -0.060043      0.349881     -0.108038
135   2     10.38520      8.26325      6.06405         0.057820      0.403295      0.599379
136   2      8.31212     10.44050      6.37466        -0.644962     -0.342445     -0.131694
137   2      8.41697      8.28884      8.35678        -0.093497     -0.024320      0.268094
138   2     10.56940     10.29590      8.29277        -0.652408      0.282786      0.678563
139   2     10.42930      8.40082     10.52850        -0.454493      0.115288     -0.326439
140   2      8.41310     10.51910     10.51390         0.144401     -0.025263      0.166103
141   2      8.35041      8.36513     12.57520        -0.046310      0.073030      0.347144
142   2     10.39300     10.42770     12.80430         0.493092     -0.033164     -0.827640
143   2     10.22960      8.34766     15.06260         0.327141     -0.106420     -0.566344
144   2      8.50962     10.56350     14.71440        -0.703871     -0.136983      0.595562
