ITEM: TIMESTEP
0
ITEM: NUMBER OF ATOMS
180
ITEM: BOX BOUNDS pp pp pp
0.0 15.336255 
0.0 14.75731
0.0 29.7984842388
ITEM: ATOMS id type x y z fx fy fz
1   2      0.13265      0.10032     29.78210         0.135765     -0.032187      0.058702
2   2      2.70704      1.57618     29.68170        -0.241309     -0.472968      0.018236
3   2      1.92568      0.06332      2.41029        -0.533036      0.338803     -0.556489
4   2      4.36795      1.62898      2.42255        -0.067284     -0.189924     -0.237360
5   2      0.77051      1.57343      4.77673         0.717700      0.105210      0.179779
6   2      3.47749      0.02734      4.70652         0.010382      0.001348      0.691336
7   2      0.13214     14.68913      7.07507        -0.443646      0.591530      0.883866
8   2      2.62551      1.54138      7.22755        -0.248900     -0.055404     -0.335139
9   2      1.90079     14.51719      9.83456        -0.693699      0.946812     -0.267610
10   2      4.20743      1.34909      9.62075         0.419539      0.037271      0.089719
11   2      0.67465      1.42680     12.23260         0.024263     -0.194088      0.044338
12   2      3.19426      0.02769     12.23870         0.421104     -0.082123      0.375165
13   2     15.30720      3.23406     29.71600         0.113967     -0.344772     -0.064196
14   2      2.82527      4.36964     29.49180        -0.521025      0.351156     -0.032926
15   2      1.73803      2.95043      2.22963        -0.260588     -0.174783      0.138893
16   2      4.09718      4.47257      2.26003         0.651981      0.105479     -0.264167
17   2      0.80727      4.56993      4.80401        -0.415518     -0.830518      0.208561
18   2      3.29991      3.08107      4.67694        -0.162355     -0.302246      0.571013
19   2     15.28000      2.92503      7.29615         0.725008      0.293230      0.077885
20   2      2.46757      4.59497      7.23823        -0.188856     -0.361577     -0.021106
21   2      1.59275      2.71815      9.66853         0.321054      0.336300     -0.173020
22   2      4.12786      4.21653      9.64305         0.106252      0.510836     -0.022360
23   2      0.82100      4.32692     11.97110         0.043983      0.213367      0.235265
24   2      3.26467      2.94951     12.14030         0.351910     -0.101146     -0.123232
25   2      0.39684      5.99115     29.36940        -0.504947      0.082392      0.325176
26   2      2.72634      7.44287     29.50030         0.385915      0.054212      0.254688
27   2      1.52680      5.75292      2.24027        -0.088996      0.599974     -0.374560
28   2      4.35901      7.34262      2.21095        -0.375251      0.051444     -0.188301
29   2      0.82339      7.28945      4.64623        -0.212668      0.979625      0.132567
30   2      3.28616      5.95586      4.52083         0.467943      0.215011      0.548266
31   2     15.04490      5.80228      7.23979         0.468719      0.517227     -0.163335
32   2      2.44057      7.46883      7.10359        -0.498817     -0.344886     -0.060309
33   2      1.47166      5.92310      9.62630         0.283895     -0.299339     -0.489340
34   2      4.08397      7.27674      9.43566         0.285175     -0.314837      0.312882
35   2      0.82602      7.37478     11.99110        -0.004587      0.257974      0.411245
36   2      3.25240      5.93636     11.92950         0.599482     -0.042381     -0.019095
37   2      0.15354      8.92261     29.42080        -0.283359     -0.801981      0.414614
38   2      2.68248     10.38970     29.56990         0.441390     -0.590160      0.072183
39   2      1.82592      8.81269      2.18890         0.009798     -0.041928      0.200568
40   2      4.44077     10.30580      2.29369        -1.055310      0.124974     -0.011749
41   2      1.09058     10.42080      4.82808        -0.358180     -0.194144     -0.287180
42   2      3.40599      8.89873      4.72870         0.061024     -0.321466     -0.299786
43   2     15.22500      8.84584      7.07399         0.373820     -0.322573      0.002619
44   2      2.65609     10.42170      7.33120        -0.656926     -0.233128     -0.304274
45   2      1.53420      8.80567      9.64582         0.504235      0.125161     -0.295091
46   2      4.16673     10.16830      9.67978         0.114732     -0.191418      0.063165
47   2      0.62019     10.22050     12.16510         0.652799     -0.015477     -0.041143
48   2      3.52096      8.89030     12.39270        -0.337107     -0.540002     -0.494714
49   2      0.25645     11.60300     29.56440        -1.009488      0.876942      0.285741
50   2      2.55162     13.16700     29.55430         0.290017      0.778140      0.185849
51   2      2.00139     11.92830      2.36322        -0.602803     -0.651489     -0.045241
52   2      4.32141     13.38260      2.23995         0.415640     -0.184919      0.425214
53   2      0.91520     13.43900      4.76431         0.646069     -0.672474     -0.134612
54   2      3.54791     11.86820      4.72677         0.075560      0.108391      0.287988
55   2      0.12355     11.75650      7.12497        -0.330054      0.176080      0.299956
56   2      2.50851     13.28620      7.39120         0.402157      0.198156     -0.690158
57   2      1.65594     11.74060      9.78434        -0.176927     -0.648623     -0.097521
58   2      4.23780     13.08750      9.69695         0.360928      0.260434      0.242478
59   2      0.96536     13.12800     12.31560         0.050632      0.244360     -0.000765
60   2      3.43568     11.60720     12.09120        -0.140491      0.470341      0.258931
61   2      5.18039      0.08671      0.11852         0.079918     -0.061182     -0.616359
62   2      7.73752      1.39676      0.02602         0.072063     -0.106112     -0.333045
63   2      6.99906      0.03734      2.59037         0.094431      0.030645     -0.248640
64   2      9.56268      1.32268      2.26184        -0.200407     -0.496935      0.444941
65   2      5.86809      1.55148      4.85714         0.471685     -0.666802      0.159999
66   2      8.81011     14.65110      4.97653        -0.183101      0.154408     -0.300995
67   2      5.14713     14.72164      7.12747         0.000678      0.342474      0.208834
68   2      7.80122      1.41665      7.21887        -0.286123     -0.126366     -0.022945
69   2      6.71621     14.66997      9.80257        -0.045324      0.488081     -0.508634
70   2      9.36270      1.63307      9.69912        -0.156002     -0.354314      0.432323
71   2      5.67459      1.27106     12.32670         0.201952      0.572130     -0.285226
72   2      8.30498      0.04561     12.20280         0.370000      0.126885     -0.015372
73   2      5.27393      2.92383     29.55320        -0.115304     -0.251749      0.157037
74   2      7.71915      4.27860     29.60620         0.298359      0.101967      0.089106
75   2      6.89792      2.85902      2.33628         0.048341      0.171791     -0.225540
76   2      9.47737      4.09570      2.42321        -0.228991      0.865678     -0.488552
77   2      5.93557      4.25250      4.53590        -0.502641      0.531335      0.317175
78   2      8.57529      2.77433      4.71923         0.027303     -0.202235      0.481369
79   2      5.07479      3.00515      7.19061        -0.192427     -0.511594      0.038827
80   2      7.59959      4.27955      7.27634         0.401727      0.353480     -0.284915
81   2      6.79875      2.86974      9.56186        -0.344077     -0.141267      0.217198
82   2      9.30094      4.43062      9.75544         0.096933      0.063881     -0.177692
83   2      6.01537      4.36688     11.95600        -1.577600      0.700487     -0.159801
84   2      8.15127      2.92175     12.21050         1.250974     -0.876349     -0.119704
85   2      5.28293      5.74219     29.58060        -0.169907      0.586655     -0.003232
86   2      7.69236      7.41651     29.67300         0.121285     -0.271463     -0.005158
87   2      6.81745      5.80634      2.19906        -0.321962     -0.361417      0.070497
88   2      9.19497      7.06423      2.53184         0.449373      0.378229     -0.254732
89   2      5.93946      7.24080      4.65449        -0.188407      0.474851      0.085684
90   2      8.23428      5.67107      4.84169         0.968215      0.265038      0.245195
91   2      5.05485      5.74546      6.92414         0.046582      0.602283      0.308113
92   2      7.55134      7.53602      7.13294        -0.416900     -0.066970     -0.313681
93   2      6.83793      5.99757      9.52329        -0.624036     -0.320424     -0.008079
94   2      9.23500      7.50888      9.72529         0.176125      0.275310     -0.128181
95   2      5.93064      7.43603     12.01420        -0.026902     -0.276238     -0.229562
96   2      8.43331      5.79811     12.07580         0.105192      0.292488      0.154335
97   2      5.20794      9.04568     29.67870        -0.304942     -0.928892     -0.423265
98   2      7.70278     10.31110     29.73700         0.478916      0.196148     -0.307287
99   2      6.81349      8.82218      2.25635         0.555414     -0.333116      0.327894
100   2      9.28725     10.33780      2.31574         0.150352      0.057824     -0.074756
101   2      5.96751     10.22470      4.59534         0.282704      0.104351      0.856355
102   2      8.54953      8.91561      4.70205        -0.795299     -0.479788      0.148633
103   2      4.88892      8.79538      7.15523         1.025956      0.027283     -0.139022
104   2      7.48627     10.42560      7.17125         0.102212     -0.626121     -0.498727
105   2      6.82066      8.86292      9.52830        -0.453324      0.172460      0.102726
106   2      9.20802     10.61730      9.58016         0.526104     -0.373845     -0.072885
107   2      6.05068     10.34390     11.85270        -0.145213      0.022065      0.433340
108   2      8.50102      8.94743     12.26180        -0.298622      0.052438     -0.311245
109   2      5.21467     11.80290     29.61990        -0.367508      0.538862     -0.048427
110   2      7.63749     13.18050      0.07952         0.584242      0.506295     -0.552778
111   2      6.76940     11.90180      2.34092         0.496003     -0.362549      0.219895
112   2      9.55192     13.24040      2.28917        -0.445036      0.097752      0.246296
113   2      6.11726     13.22590      4.68366        -0.290570      0.135851      0.679522
114   2      8.65890     11.74880      4.78902        -0.467876      0.398382     -0.265303
115   2      5.02956     11.92510      7.21973         0.013873     -0.397043     -0.608959
116   2      7.65254     13.19180      7.14367         0.227706      0.772798      0.172034
117   2      6.73445     11.86680      9.46341         0.052363     -0.123302      0.736691
118   2      9.31625     13.45980      9.75239        -0.025086     -0.139812     -0.129665
119   2      5.84505     13.23650     12.22170        -0.141696     -0.209876     -0.074778
120   2      8.39937     11.91680     12.23830         0.157563      0.009150     -0.243242
121   2     10.22670     14.71559     29.54430         0.156072     -0.180955      0.148312
122   2     12.90510      1.43201     29.70520        -0.022682      0.124876      0.084382
123   2     12.14340     14.56991      2.21024         0.001899      0.325938      0.548837
124   2     14.59430      1.58323      2.40413        -0.191343     -0.753088     -0.266388
125   2     11.28470      1.38975      4.93807        -0.174219     -0.313320     -0.269283
126   2     13.70640     14.60312      4.81877        -0.337432      0.495302     -0.246071
127   2     10.37930      0.15171      7.51667        -0.276978     -0.339790     -0.806286
128   2     12.88560      1.68545      7.55321        -0.018700     -0.808714     -0.752024
129   2     11.97340     14.67218      9.73225         0.393847      0.277359      0.578093
130   2     14.49740      1.44372      9.80683        -0.284623      0.070991      0.170216
131   2     11.07700      1.65459     12.19770        -0.178966     -0.154456     -0.186933
132   2     13.47180     14.74764     12.42210         0.136399      0.469304     -0.417273
133   2     10.34910      2.84635     29.63990         0.050495      0.060467     -0.005302
134   2     12.76990      4.56858     29.71580         0.045530     -0.327329      0.020708
135   2     11.93390      2.69770      2.45315         0.601045      0.388684     -0.043630
136   2     14.36270      4.32479      2.42714        -0.195934      0.607132      0.056401
137   2     11.04380      4.46188      4.72567         0.216263      0.055491      0.146259
138   2     13.66530      2.86721      4.96005        -0.335731      0.572766     -0.115857
139   2     10.43340      2.98386      7.06411        -1.205155      0.237744      0.386855
140   2     12.53730      4.68843      7.26788         0.319367     -0.056084     -0.501963
141   2     11.83850      2.99655      9.70189        -0.055646      0.303598      0.571791
142   2     14.29680      4.45776      9.75501         0.006974     -0.167540     -0.366940
143   2     11.34610      4.56244     12.23360        -0.727563      0.101534     -0.335396
144   2     13.65300      3.09008     12.34120         0.032018     -0.621174     -0.195969
145   2     10.10200      5.72866     29.63500         0.199899      0.341492      0.251247
146   2     12.85130      7.38789     29.70030        -0.060636      0.206310     -0.015403
147   2     11.80440      5.93435      2.25177         0.172326     -0.408851      0.075627
148   2     14.45210      7.45706      2.21464         0.225449     -0.042890     -0.087700
149   2     10.87480      7.33499      4.92722         0.119223     -0.341798     -0.065726
150   2     13.48000      6.02866      4.60433         0.073134     -0.420649      0.426815
151   2      9.87882      6.11359      7.36751         0.321814     -0.533706     -0.530680
152   2     12.55500      7.63381      7.22401         0.349863     -0.397021     -0.209516
153   2     11.70620      6.01095      9.54093         0.206748      0.088578      0.724248
154   2     14.29640      7.40364      9.61079        -0.102378     -0.303877     -0.129522
155   2     10.78690      7.40523     12.05310         0.785714     -0.044169      0.148836
156   2     13.73830      5.99164     12.15360        -0.233887      0.292492     -0.029646
157   2     10.21850      8.84116     29.74320         0.095406     -0.127964      0.057019
158   2     12.78270     10.26610     29.64730         0.366653     -0.151094      0.132597
159   2     11.65590      8.71608      2.51169         0.382538      0.322304     -0.449529
160   2     14.75940     10.38260      2.38849        -0.036621     -0.303769     -0.617696
161   2     11.01230     10.25540      4.78404         0.945955      0.448042     -0.381590
162   2     13.68170      8.82284      4.63284        -0.128947      0.369583      0.053153
163   2     10.14110      9.13112      7.16044        -0.270561     -0.208073      0.660202
164   2     12.91830     10.47390      6.99232        -0.428041      0.104774      0.145039
165   2     11.80020      8.97713      9.62521        -0.312871      0.062056      0.071829
166   2     14.46480     10.21090      9.55330        -0.104999      0.623627     -0.137027
167   2     10.88550     10.52450     11.99310         0.268752     -0.293099     -0.113486
168   2     13.46280      8.95895     12.00650        -0.328900     -0.218064      0.053777
169   2     10.37120     11.82100     29.39020        -0.301549     -0.027249      0.421433
170   2     12.96490     13.17970     29.71830         0.323805      0.010532     -0.298986
171   2     11.86540     11.74670      2.12475         0.472553     -0.662851      0.592068
172   2     14.78900     13.29870      2.33614        -0.316153      0.011737     -0.459644
173   2     11.24870     13.19860      4.80401         0.107886     -0.008676     -0.501607
174   2     13.79610     11.76070      4.53515        -0.422390     -0.042153      0.455292
175   2     10.28740     11.99240      7.14778         0.015796     -0.090106      0.597017
176   2     12.84230     13.34110      7.25161         0.269902      0.079283      0.015260
177   2     12.09280     11.81500      9.58960        -0.342504      0.044280     -0.040128
178   2     14.71230     13.43260      9.60813        -0.531787     -0.234258     -0.431468
179   2     11.00750     13.33770     12.09840        -0.083542      0.215267      0.059239
180   2     13.83920     12.05030     11.86890        -0.792562     -0.531988      0.300382
