ITEM: TIMESTEP
0
ITEM: NUMBER OF ATOMS
144
ITEM: BOX BOUNDS pp pp pp
0.0 12.4883307881 
0.0 12.4883307881
0.0 35.7286733738
ITEM: ATOMS id type x y z fx fy fz
1   2      0.07067     12.32054     35.56010         0.132567      0.107973      0.368229
2   2      2.29592      1.78995     35.50890        -0.038640     -0.285123      0.126655
3   2      2.18632     12.41058      2.02351        -0.358531     -0.126011     -0.509522
4   2     12.48340      1.98561      2.02627         0.671062     -0.377215      0.243842
5   2     12.45052     12.21110      4.09328         0.620377      1.049904     -0.168803
6   2      2.22381      2.03946      3.92867        -0.824522      0.371524      0.133743
7   2      2.09137     12.41361      5.95706         0.084832      0.006302      0.199032
8   2     12.41355      2.10702      6.11075         0.098783     -0.426440      0.261910
9   2     12.48056     12.45660      8.16695         0.011604      0.311068      0.083762
10   2      1.85012      2.06972      8.30613         0.949164      0.028864     -0.270399
11   2      2.10416      0.13368     10.55260        -0.046410     -0.131799      0.101136
12   2     12.47050      2.11175     10.29040        -0.298366      0.061656      0.437663
13   2      0.06937      0.20667     12.77440        -0.174025      0.091751     -0.350838
14   2      2.05414      2.22620     12.53840        -0.071221     -0.022033      0.213476
15   2      1.99212      0.24886     14.75410         0.378480      0.020956      0.227678
16   2     12.38350      2.22168     15.08060        -0.157909     -0.098823     -0.459630
17   2      0.08777      4.00224     35.60100         0.258500      0.382806      0.094485
18   2      2.16181      6.13474     35.62080        -0.985975     -0.855578     -0.440188
19   2      2.34053      3.83312      1.64664        -0.485078      0.293033      0.389700
20   2     12.47650      6.14265      1.92128         0.289300     -0.571433     -0.174933
21   2     12.21990      3.97615      4.17466         0.815002     -0.132368     -0.808534
22   2      2.22042      6.14143      3.97804        -0.291658     -0.335105     -0.019433
23   2      2.24969      4.03060      6.16911        -0.481562      0.278545     -0.106987
24   2      0.21573      6.18376      6.20169         0.005902      0.430868     -0.222642
25   2      0.25087      4.32149      8.16590        -0.820330     -0.067918      0.484726
26   2      2.30868      6.46615      8.32406        -1.395683     -1.042314      0.415808
27   2      1.88006      4.42147     10.43530         0.939267     -0.371251     -0.056694
28   2      0.03041      6.49599     10.34560        -0.437383     -0.229904      0.485092
29   2      0.04587      4.30805     12.53440         0.313536      0.522870      0.289490
30   2      2.02245      6.53377     12.57160        -0.635235     -0.445809      0.744392
31   2      1.84703      4.18694     14.89970         0.222018      0.240011     -0.396668
32   2     12.25643      6.21761     14.83770         0.162218      0.090059     -0.195322
33   2     12.46240      8.11355     35.50460         0.342852     -0.258683      0.047961
34   2      1.92849     10.21440     35.64310         0.242054      0.187528      0.134021
35   2      2.15172      8.13056      1.82441        -0.156484     -0.299627     -0.135650
36   2     12.38988     10.13770      2.19422        -0.185385     -0.055469     -1.174426
37   2      0.09010      8.04246      4.12224        -0.338621      0.194406      0.036838
38   2      2.10894     10.00700      3.75073         0.144339      0.755893      1.838032
39   2      1.97062      8.41796      6.28968         0.650900     -0.044518     -0.263400
40   2      0.06080     10.36990      6.18236        -0.071800      0.188542      0.374111
41   2      0.05457      8.54005      8.47179        -0.192323     -0.051112     -0.203483
42   2      2.15100     10.44510      8.47202         0.109038      0.106798     -0.407439
43   2      2.09909      8.42453     10.59320        -0.383878      0.529746     -0.225591
44   2      0.10077     10.58180     10.54720        -0.209460      0.005464      0.082976
45   2     12.21730      8.44269     12.65120         0.423415     -0.457370     -0.082262
46   2      1.86764     10.44960     12.90830         0.247626     -0.008628     -0.494165
47   2      1.58007      8.37326     15.08500         0.734503     -0.572937     -0.456629
48   2     12.44660     10.49610     14.92200        -0.522243      0.234024      0.115650
49   2      4.29373     12.15965     35.49600        -0.156511      0.072660      0.386837
50   2      6.35312      1.96848     35.46421        -0.224975     -0.201468      0.044656
51   2      6.41680     12.22740      1.75610        -0.475903      0.329968     -0.419155
52   2      4.46562      2.03227      1.92998        -0.015290      0.243331     -0.967433
53   2      4.31501      0.20293      3.86219         0.367815     -1.302507      0.844092
54   2      6.46132      2.14485      4.03793        -0.725257      0.680472      0.030242
55   2      6.08912     12.39130      6.19314         0.202403      0.010280      0.090948
56   2      4.14143      2.01869      6.12865         0.232654     -0.289434      0.420688
57   2      3.93339      0.15208      8.36720         0.418990     -0.266968     -0.196685
58   2      5.99375      2.16284      8.37256         0.322867     -0.325585     -0.119962
59   2      6.23741      0.03837     10.64000        -0.345577      0.417053      0.163595
60   2      4.17129      2.19765     10.56270        -0.394165      0.130898     -0.159889
61   2      4.08982     12.47174     12.70020        -0.314876      0.307509     -0.097232
62   2      6.15883      2.28042     12.54780         0.332680     -0.143325      0.370765
63   2      6.17065     12.41260     14.63930         0.150079      0.829722      0.684599
64   2      4.25019      2.16015     14.72550        -0.648133     -0.469959     -0.221675
65   2      4.43315      4.23285     35.37480        -0.093389     -0.458597      0.084187
66   2      6.40880      6.20590     35.42170         0.048625      0.225571      0.093356
67   2      6.29799      4.19638      1.89528        -0.560990     -1.029347      0.027691
68   2      4.14375      6.01086      1.86971         0.567432      0.378978      0.420101
69   2      4.27365      4.08708      4.22277         0.064124      0.163571     -0.611109
70   2      6.28559      6.08407      4.18861         0.338985      0.250612     -0.187857
71   2      6.36632      4.10548      6.28595        -0.376526      0.302223     -0.040676
72   2      4.08838      6.35864      6.15803         0.308867     -0.416292     -0.260237
73   2      4.15577      4.30424      8.38201        -0.415877     -0.295515      0.130767
74   2      6.15108      6.28170      8.32982         0.693850     -0.390491      0.351394
75   2      6.28782      4.19877     10.39110        -0.554707      0.174714      0.487354
76   2      4.26500      6.61402     10.62950        -0.244678     -1.298748      0.209675
77   2      3.79427      4.39151     12.66470         0.475862     -0.086684     -0.053786
78   2      5.97015      6.37506     12.91440         0.124358     -0.148968     -1.319005
79   2      5.94597      4.22895     14.66130         0.504221      0.208473      0.049855
80   2      3.98438      6.44219     14.92220        -0.534928     -0.080039     -0.129511
81   2      4.01379      8.02314     35.38460         0.952837      0.772567      0.165372
82   2      6.23956     10.04750     35.46260        -0.745954      0.451338      0.287045
83   2      6.49272      8.03733      1.88924        -0.429769      0.145210      0.202625
84   2      4.14203     10.24700      2.04640         0.888554      0.150317     -0.952680
85   2      4.37426      8.12285      3.99712         0.065411      0.446783     -0.021443
86   2      6.35863     10.28320      3.89805        -0.105807     -0.191338      0.599974
87   2      6.28021      8.46642      6.46576        -0.313221      0.692709     -1.364951
88   2      4.09396     10.38700      6.10844         0.051794     -0.139943     -0.061210
89   2      4.25069      8.20046      8.29540         0.053502      2.123224      0.250909
90   2      6.23719     10.70840      8.59110        -0.412783     -0.440328     -0.703636
91   2      6.15570      8.50848     10.51330         0.957489      0.238722      0.354002
92   2      4.05499     10.40360     10.59060         0.224126      0.460986      0.071073
93   2      3.96787      8.51122     12.85560         0.355678     -0.036853     -0.024360
94   2      6.17071     10.51440     12.78470         0.105154     -1.165386     -0.621312
95   2      6.26409      8.32815     14.79540        -0.051715      0.798080      0.128674
96   2      3.97873     10.41500     14.83760         0.044695      0.218893      0.164546
97   2      8.50984     12.23345     35.25260         0.097376     -0.034831      0.683121
98   2     10.65760      1.95599     35.62400        -0.326266     -0.702954     -0.597905
99   2     10.45020     12.21688      2.02554         0.053731      0.080128     -0.750035
100   2      8.38973      1.88147      1.66846        -0.223334     -0.146278      0.093853
101   2      8.12902      0.11267      3.98222        -0.114472     -1.745492      0.202249
102   2     10.16010      1.76831      3.90395         1.055698      1.676812     -0.187965
103   2     10.31410      0.18165      6.05415         0.460710     -0.499298      1.034203
104   2      8.28120      2.08276      6.36613        -0.192196      0.150150     -0.466803
105   2      8.18639      0.23897      8.48468         0.302366     -0.453438     -0.181844
106   2     10.26390      2.24233      8.29477         0.705040     -0.213295      0.034786
107   2     10.42790      0.18317     10.71280        -0.071599      0.118989     -0.454248
108   2      8.29171      2.17873     10.50480         0.076399     -0.004755      0.384486
109   2      8.27602     12.48800     12.65770         0.281462      0.249306      0.192558
110   2     10.66800      2.37064     12.68330        -0.528488     -0.792986      0.033863
111   2     10.48310     12.44728     14.79390        -0.315272      0.455323      0.063749
112   2      8.46999      1.99977     14.62550        -0.240897     -0.029998     -0.130489
113   2      8.45509      3.87672     35.39760         0.002688      0.426443     -0.003413
114   2     10.28290      6.25872     35.32380        -0.029502     -0.307358      0.409111
115   2     10.44230      3.91115      1.82041        -0.117242      0.743324      0.424809
116   2      8.33069      5.81962      1.84283         1.119975      1.129962      0.015737
117   2      8.43631      4.12521      4.18273         0.236689      0.072621      0.033741
118   2     10.53070      6.12208      3.99031        -0.606895      0.387553     -0.129254
119   2     10.47800      4.49872      6.25620        -0.647897     -0.411606      0.737051
120   2      8.24764      6.51328      6.34012         0.523088     -0.446604     -0.261929
121   2      8.32033      4.33609      8.34862         0.099381     -0.241644     -0.324409
122   2     10.33980      6.38683      8.53122         0.295302     -0.731144     -0.962279
123   2     10.43670      4.12784     10.41630         0.193162      0.412314      0.094891
124   2      8.26268      6.10442     10.52710        -0.056849      0.841731      0.567585
125   2      8.39434      4.20523     12.72110        -0.670164     -0.245942     -0.471239
126   2     10.41160      6.24371     12.62660        -0.116820      0.261973     -0.209789
127   2     10.21170      4.25519     14.81620         0.416618     -0.044146      0.203253
128   2      8.11669      6.26303     14.62150         0.582621      0.136106      0.270349
129   2      8.37784      8.46790     35.49100         0.503662     -0.808390     -0.231463
130   2     10.69040     10.16460     35.45150        -0.485253      0.612354      0.254933
131   2     10.37720      8.08316      1.81925        -0.129683      0.116965      0.183035
132   2      8.42773     10.32690      1.89956         0.227338     -0.340340      0.078184
133   2      8.52019      8.11494      3.99411        -0.205394      0.311112      0.192765
134   2     10.48170     10.28590      4.25826        -0.697895     -0.630103     -0.291111
135   2     10.47950      8.43718      6.52462        -0.234374     -0.171545     -0.433482
136   2      8.44318     10.64230      6.13314        -0.659131     -0.417706      0.325115
137   2      8.18301      8.59395      8.36105         0.265226      0.073728      0.253383
138   2     10.41380     10.69730      8.47471        -0.354266     -0.073676     -0.172123
139   2     10.17810      8.39873     10.25540         0.700892      0.339343      1.140588
140   2      8.38781     10.49890     10.61780        -0.242664      0.364916     -0.191087
141   2      8.45751      8.45077     12.52640        -0.312499     -0.283658      0.428872
142   2     10.58850     10.62780     12.64950        -0.674061     -0.302467      0.060306
143   2     10.27670      8.39341     14.88670         0.049420     -0.080927     -0.411569
144   2      8.32711     10.44510     14.88120         0.007632     -0.070784     -0.422127
