ITEM: TIMESTEP
0
ITEM: NUMBER OF ATOMS
144
ITEM: BOX BOUNDS pp pp pp
0.0 12.4883307881 
0.0 12.4883307881
0.0 35.7286733738
ITEM: ATOMS id type x y z fx fy fz
1   2      0.43177     12.30260     35.46810        -0.098027      0.774539      0.086248
2   2      2.25832      2.22363     35.41230         0.040209     -0.205677      0.350845
3   2      2.13653      0.15382      1.96686        -0.023346     -0.212822     -0.018532
4   2      0.06714      2.16618      1.73330        -0.117564     -0.296604      0.113822
5   2      0.04047      0.15598      4.08594        -0.647804     -0.517896     -0.428546
6   2      1.94665      2.07092      4.14993         0.852963      0.236995     -0.028586
7   2      2.06270     12.44700      6.34275         0.013002     -0.169670     -0.463116
8   2     12.48024      2.10326      6.19356        -0.284198      0.056415      0.384784
9   2     12.43400      0.03387      8.42927        -0.606492      0.144429     -0.521421
10   2      2.12987      1.98487      8.37441        -0.194585      0.667933     -0.489939
11   2      1.94762      0.03357     10.45600         0.157441     -0.028850      0.306835
12   2     12.48620      2.18037     10.50140        -0.084650     -0.604972     -0.080954
13   2     12.35440      0.04207     12.66920        -0.192559     -0.056740      0.442474
14   2      1.96392      1.97315     12.56040         0.395824      0.032975      0.397555
15   2      2.21234      0.04550     14.88470        -0.731433     -0.579304     -0.226293
16   2      0.11913      2.02403     14.93120        -0.521506     -0.338383     -0.376395
17   2      0.29287      4.27216     35.61820        -0.222702      0.126858     -0.330508
18   2      2.20524      6.48920     35.41710        -0.402440     -0.347905      0.334336
19   2      2.20593      4.03180      2.06880        -0.468712      0.078963     -0.506427
20   2      0.06247      6.26474      1.78532        -0.006891      0.268243      0.265959
21   2      0.01287      4.13584      4.00923        -0.020375      0.268647     -0.283856
22   2      2.01629      6.17057      4.13203         0.010004      0.387090     -0.441670
23   2      2.03698      4.18199      6.31774         0.166966     -0.095070      0.057859
24   2      0.13217      6.41490      6.25492        -0.355574     -0.592782      0.149384
25   2      0.10465      4.17298      8.46124        -0.240885      0.253442     -0.487952
26   2      2.36748      6.51227      8.55848        -0.397707     -0.752953     -0.287385
27   2      2.12096      4.17168     10.46480         0.223818      0.326548      0.083886
28   2      0.02150      6.29566     10.45120        -0.218034     -0.337313      0.190174
29   2      0.00522      4.08452     12.66710        -0.128896      0.326287      0.201870
30   2      2.04780      6.26437     12.54320        -0.283183     -0.175985      0.088167
31   2      2.00450      4.00474     14.74560         0.275733      0.265160     -0.191681
32   2      0.02197      6.20274     14.78010        -0.086503     -0.163576     -0.381059
33   2      0.05507      8.40867     35.36460         0.158993     -0.301803      0.177753
34   2      2.31547     10.35180     35.67310         0.206155     -0.190494     -0.084418
35   2      2.14681      8.40712      2.02686        -0.119659     -0.557751     -0.066445
36   2      0.00357     10.33020      1.87907         0.694733      0.686688     -0.200662
37   2     12.42734      8.42207      3.99304         0.874734     -0.864118      0.090914
38   2      2.06739     10.44730      4.05719         0.111911      0.151251      0.163416
39   2      2.09145      8.35386      6.18827         0.300153      0.640724      0.086407
40   2     12.46252     10.47520      6.01212        -0.250311     -0.053254      0.499946
41   2     12.38940      8.31034      8.37179        -0.072170      0.046245     -0.130357
42   2      1.76445     10.37310      8.32346         0.747834     -0.125513     -0.026926
43   2      1.91357      8.40674     10.52990         0.050391      0.267630      0.126313
44   2     12.35855     10.61640     10.58080        -0.502548     -0.693154     -0.013274
45   2     12.23630      8.28250     12.57340         0.141427      0.363646      0.108624
46   2      1.84850     10.41900     12.67710         0.028832      0.167791      0.211190
47   2      1.99310      8.28736     14.78150         0.176528     -0.277098     -0.169310
48   2      0.17757     10.32360     14.92960        -0.577787      0.397971     -0.301206
49   2      4.17081      0.06740     35.53040        -0.103934     -0.244672      0.177044
50   2      6.20285      2.01995     35.56793         0.565776     -0.033174     -0.256948
51   2      6.32351      0.04337      1.88614         0.084609     -0.226446     -0.141717
52   2      4.31604      2.08855      1.94059        -0.293833      0.115434      0.194945
53   2      4.12407     12.47622      4.06345        -0.470290      0.038998      0.114263
54   2      6.10873      2.00294      4.17041         0.971050      0.923418     -0.880790
55   2      6.40979      0.14337      6.15046        -0.034144     -0.765930      0.281835
56   2      4.17254      1.94792      6.05538        -0.534798      0.690474      1.054045
57   2      4.08639     12.41980      8.32444         0.237381     -0.377548      0.063895
58   2      6.29883      1.74012      8.37754        -0.260780      0.923451      0.320747
59   2      5.95697     12.27352     10.63360         0.674319      0.383172     -0.252109
60   2      4.06198      2.02109     10.40110         0.574143      0.160641      0.332039
61   2      4.10479     12.40280     12.68650        -0.269559      0.268035      0.572619
62   2      6.25312      1.91745     12.68030        -0.263356      0.598657     -0.087763
63   2      6.29108      0.36546     15.04340         0.126665     -0.739007     -0.202647
64   2      4.06740      1.94674     14.97920         0.150690      0.793829     -0.417772
65   2      4.42570      4.12511     35.61070        -0.379176      0.335886     -0.225631
66   2      6.42349      6.29582     35.43026        -0.215152     -0.020590      0.199430
67   2      6.45389      4.29771      1.88475        -0.481160      0.042721      0.824271
68   2      4.04985      6.06708      1.88853         0.363022      0.608740      0.170222
69   2      4.14818      4.16884      4.05125         0.464037     -0.059104      0.469140
70   2      6.17561      6.37198      4.11901        -0.270488     -0.841863     -0.365920
71   2      6.29349      4.24781      6.32207        -0.510614     -0.340477     -0.315970
72   2      4.01665      6.31282      6.14979         0.424731     -0.256049      0.271458
73   2      4.18019      4.20974      8.31646        -0.081208     -0.278157     -0.042593
74   2      6.26486      6.17566      8.40367        -0.033959      0.276108     -0.014719
75   2      6.23109      4.14976     10.45220         0.185119     -0.559418      0.302755
76   2      4.43030      6.27611     10.85600        -0.656323     -0.354677     -0.243027
77   2      4.12728      3.94280     12.57930         0.118611      0.005390      0.142393
78   2      6.55440      6.23856     12.82930        -0.574819     -0.306336     -0.105673
79   2      5.89940      4.11278     14.91210         0.454649     -0.130067     -0.411154
80   2      3.97149      6.07800     14.58500         0.079932      0.313725     -0.003410
81   2      4.27713      8.24182     35.68550        -0.156889      0.034597     -0.295358
82   2      6.16488     10.24720     35.67090         0.346517      0.377155     -0.130804
83   2      6.11425      8.26724      2.01504         0.740889     -0.020582     -0.357080
84   2      4.27557     10.51220      2.07642        -0.475668      0.065041     -0.672136
85   2      4.23948      8.48528      4.02102        -0.561172     -0.292121      0.791860
86   2      6.27685     10.66770      4.03644         0.146909     -0.761309     -0.003832
87   2      6.18468      8.22948      6.26791        -0.132820      0.113126      0.159845
88   2      4.46421     10.42690      6.27852        -0.727314      0.074333      0.052630
89   2      4.28982      8.44730      8.57299        -0.321893      0.203344     -0.463178
90   2      6.31547     10.39190      8.47524        -0.416047      0.623898     -0.504075
91   2      6.26085      8.23196     10.51210         0.449118      0.193441      0.451028
92   2      3.87254     10.47720     10.61440         0.052075     -0.482049     -0.465667
93   2      3.93002      8.45684     12.66280        -0.002317     -0.544620      0.180303
94   2      6.04109     10.18650     12.74370         0.477780      0.596071     -0.003628
95   2      5.98732      8.20807     14.77120         0.063168      0.035103      0.036644
96   2      4.08455     10.43810     14.90730         0.069692     -0.043745     -0.291698
97   2      8.31365     12.45775     35.52990         0.116782      0.442955     -0.256765
98   2     10.35250      2.06064     35.55630        -0.007891      0.147323      0.034501
99   2     10.65500      0.06067      1.74811        -0.304412     -0.180026      0.366770
100   2      8.28779      2.11217      1.95405         0.070658     -0.102580      0.034042
101   2      8.34810     12.46830      3.94884         0.494360      0.218595     -0.358884
102   2     10.26810      2.27904      3.94688         0.639722     -0.828268      0.031512
103   2     10.30070     12.44790      5.93156         0.399522      0.052013      0.287333
104   2      8.40827      2.27907      6.16316        -0.007952     -0.301210      0.255834
105   2      8.46232     12.47811      8.12360         0.123365     -0.164406      0.308882
106   2     10.47750      2.15577      8.24101        -0.147519      0.025901      0.078714
107   2     10.23870      0.04017     10.43740         0.175493     -0.361417      0.036950
108   2      8.14586      1.81300     10.55440        -0.123717      0.504061     -0.108324
109   2      8.13214     12.29787     12.77060         0.097906      0.171787      0.066418
110   2     10.28180      1.97990     12.61460        -0.033771     -0.285944      0.484297
111   2     10.44660     12.42890     15.01690         0.084086      0.111663     -0.637371
112   2      8.26666      2.31068     14.83990        -0.066360     -0.231246     -0.139247
113   2      8.32090      4.10033     35.60510         0.363604      0.165577     -0.447628
114   2     10.41330      6.20053     35.13520         0.522404     -0.379227      0.723203
115   2     10.43660      4.21771      1.83625         0.096642      0.361010     -0.124691
116   2      8.37434      6.42902      1.79946         0.253793     -0.374091      0.458372
117   2      8.36674      4.27592      4.17383        -0.690442      0.173890     -0.903597
118   2     10.40970      6.39215      3.98097        -0.015426     -0.234047     -0.570983
119   2     10.57090      4.38398      5.97124        -0.097580     -0.075907      1.106334
120   2      8.24666      6.29869      6.06765         0.588294      0.191966      0.748849
121   2      8.32681      4.10233      8.39684         0.225387     -0.106398      0.129291
122   2     10.40580      6.19262      8.42424        -0.020646     -0.197298     -0.467510
123   2     10.43710      3.99115     10.63520        -0.402221      0.614860     -0.594590
124   2      8.41360      6.20019     10.45720        -0.167961     -0.063559      0.215986
125   2      8.44910      4.18668     12.69820        -0.596044     -0.480966     -0.255745
126   2     10.35120      6.19325     12.64040         0.248906      0.083213     -0.045357
127   2     10.43310      4.01483     14.82630         0.515388      0.161186     -0.137628
128   2      8.34027      5.96031     15.01660        -0.105207      0.112896     -0.280431
129   2      8.60806      8.20271     35.40720        -0.402260      0.583551     -0.161426
130   2     10.79180     10.60580     35.25790        -0.657103     -0.240875      0.237384
131   2     10.55190      8.37488      1.77508        -0.433336     -0.670423     -0.349347
132   2      8.52940     10.39090      1.51000         0.015477     -0.311909      0.706625
133   2      8.14967      8.40017      3.97498         0.490494      0.168446     -0.287439
134   2     10.44950     10.28010      3.82883        -0.917251      1.000634      0.395106
135   2     10.43070      8.25370      6.07400        -0.301830      0.312517      0.490594
136   2      8.21945     10.27970      6.05819         0.421118      0.302423      0.227941
137   2      8.23925      8.39613      8.27990         0.396990     -0.671464     -0.101419
138   2     10.33130     10.35160      8.21154         0.313791      0.327215     -0.137076
139   2     10.27250      8.42980     10.33870         0.204306     -0.032042      0.571533
140   2      8.14397     10.34040     10.50840         0.591577      0.428353      0.502970
141   2      8.31145      8.37412     12.74240         0.134705      0.052831     -0.112738
142   2     10.23490     10.48650     12.86360         0.420805     -0.214255     -0.082622
143   2     10.30960      8.13204     14.74070         0.095597      0.175862      0.038946
144   2      8.08621     10.36410     14.93230         0.033475      0.103200     -0.367528
