ITEM: TIMESTEP
0
ITEM: NUMBER OF ATOMS
180
ITEM: BOX BOUNDS pp pp pp
0.0 15.336255 
0.0 14.75731
0.0 29.7984842388
ITEM: ATOMS id type x y z fx fy fz
1   2     15.33620      0.00005     29.74940         0.001403     -0.000324     -0.042113
2   2      2.55604      1.47573     29.74940         0.000578      0.000491     -0.042142
3   2      1.70403      0.00005      2.37160        -0.000084     -0.000435      0.066298
4   2      4.26007      1.47573      2.37160         0.000149      0.000757      0.066545
5   2      0.85201      1.47573      4.77837         0.003117      0.000288      0.006550
6   2      3.40805      0.00005      4.77837         0.003432     -0.000441      0.006598
7   2     15.33620      0.00005      7.18999        -0.003117     -0.000442     -0.007577
8   2      2.55604      1.47573      7.18999        -0.004203      0.000525     -0.007769
9   2      1.70403      0.00005      9.59675         0.000090     -0.000435     -0.066026
10   2      4.26007      1.47573      9.59675         0.000560      0.000706     -0.065517
11   2      0.85201      1.47573     12.01730        -0.001560      0.000342      0.042786
12   2      3.40805      0.00005     12.01730        -0.001245     -0.000322      0.042502
13   2     15.33620      2.95146     29.74940         0.001412     -0.000811     -0.042246
14   2      2.55604      4.42719     29.74940         0.000846      0.000974     -0.042143
15   2      1.70403      2.95146      2.37160        -0.000378     -0.001005      0.066379
16   2      4.26007      4.42719      2.37160        -0.000036      0.001620      0.066511
17   2      0.85201      4.42719      4.77837         0.003471      0.000878      0.006596
18   2      3.40805      2.95146      4.77837         0.003268     -0.001529      0.006421
19   2     15.33620      2.95146      7.18999        -0.003116     -0.000759     -0.007483
20   2      2.55604      4.42719      7.18999        -0.003832      0.001074     -0.007529
21   2      1.70403      2.95146      9.59675         0.000006     -0.000827     -0.065979
22   2      4.26007      4.42719      9.59675         0.000354      0.001144     -0.065848
23   2      0.85201      4.42719     12.01730        -0.001183      0.000817      0.042733
24   2      3.40805      2.95146     12.01730        -0.001400     -0.001532      0.042655
25   2     15.33620      5.90292     29.74940         0.001417     -0.000412     -0.042208
26   2      2.55604      7.37866     29.74940         0.000842     -0.000045     -0.042150
27   2      1.70403      5.90292      2.37160        -0.000956     -0.000581      0.066403
28   2      4.26007      7.37866      2.37160        -0.000192     -0.000051      0.066309
29   2      0.85201      7.37866      4.77837         0.003634     -0.000057      0.006568
30   2      3.40805      5.90292      4.77837         0.003099     -0.000855      0.006400
31   2     15.33620      5.90292      7.18999        -0.003117     -0.000396     -0.007357
32   2      2.55604      7.37866      7.18999        -0.003756     -0.000057     -0.007372
33   2      1.70403      5.90292      9.59675        -0.000248     -0.000450     -0.065864
34   2      4.26007      7.37866      9.59675         0.000346     -0.000051     -0.066084
35   2      0.85201      7.37866     12.01730        -0.001007     -0.000045      0.042755
36   2      3.40805      5.90292     12.01730        -0.001517     -0.000802      0.042634
37   2     15.33620      8.85439     29.74940         0.001419      0.000309     -0.042261
38   2      2.55604     10.33010     29.74940         0.000848     -0.001005     -0.042233
39   2      1.70403      8.85439      2.37160        -0.000961      0.000443      0.066405
40   2      4.26007     10.33010      2.37160        -0.000042     -0.001668      0.066507
41   2      0.85201     10.33010      4.77837         0.003473     -0.000924      0.006591
42   2      3.40805      8.85439      4.77837         0.003097      0.000719      0.006405
43   2     15.33620      8.85439      7.18999        -0.003114      0.000260     -0.007363
44   2      2.55604     10.33010      7.18999        -0.003834     -0.001121     -0.007524
45   2      1.70403      8.85439      9.59675        -0.000242      0.000310     -0.065866
46   2      4.26007     10.33010      9.59675         0.000360     -0.001193     -0.065844
47   2      0.85201     10.33010     12.01730        -0.001186     -0.000847      0.042824
48   2      3.40805      8.85439     12.01730        -0.001519      0.000699      0.042687
49   2     15.33620     11.80580     29.74940         0.001439      0.001096     -0.042274
50   2      2.55604     13.28150     29.74940         0.000536     -0.000274     -0.041998
51   2      1.70403     11.80580      2.37160        -0.000374      0.001380      0.066366
52   2      4.26007     13.28150      2.37160         0.000158     -0.000458      0.066564
53   2      0.85201     13.28150      4.77837         0.003112      0.000018      0.006558
54   2      3.40805     11.80580      4.77837         0.003271      0.001903      0.006417
55   2     15.33620     11.80580      7.18999        -0.003118      0.001135     -0.007480
56   2      2.55604     13.28150      7.18999        -0.004201     -0.000218     -0.007778
57   2      1.70403     11.80580      9.59675         0.000004      0.001202     -0.065965
58   2      4.26007     13.28150      9.59675         0.000553     -0.000408     -0.065535
59   2      0.85201     13.28150     12.01730        -0.001521     -0.000124      0.042643
60   2      3.40805     11.80580     12.01730        -0.001426      0.001815      0.042683
61   2      5.11208      0.00005     29.74940         0.001495     -0.000326     -0.042059
62   2      7.66813      1.47573     29.74940         0.001275      0.000331     -0.042184
63   2      6.81612      0.00005      2.37160        -0.000225     -0.000436      0.066438
64   2      9.37216      1.47573      2.37160        -0.001088      0.000476      0.066466
65   2      5.96410      1.47573      4.77837         0.004261      0.000486      0.006443
66   2      8.52014      0.00005      4.77837         0.003475     -0.000443      0.006489
67   2      5.11208      0.00005      7.18999        -0.003176     -0.000443     -0.007364
68   2      7.66813      1.47573      7.18999        -0.003366      0.000296     -0.007385
69   2      6.81612      0.00005      9.59675         0.000455     -0.000435     -0.065874
70   2      9.37216      1.47573      9.59675        -0.000369      0.000345     -0.065782
71   2      5.96410      1.47573     12.01730        -0.000421      0.000496      0.042671
72   2      8.52014      0.00005     12.01730        -0.001130     -0.000325      0.042557
73   2      5.11208      2.95146     29.74940         0.001500     -0.000888     -0.042174
74   2      7.66813      4.42719     29.74940         0.001259      0.000898     -0.042159
75   2      6.81612      2.95146      2.37160        -0.000085     -0.000769      0.066423
76   2      9.37216      4.42719      2.37160        -0.000502      0.001118      0.066448
77   2      5.96410      4.42719      4.77837         0.003673      0.001129      0.006466
78   2      8.52014      2.95146      4.77837         0.003314     -0.000767      0.006513
79   2      5.11208      2.95146      7.18999        -0.003097     -0.000964     -0.007519
80   2      7.66813      4.42719      7.18999        -0.003364      0.000870     -0.007514
81   2      6.81612      2.95146      9.59675         0.000364     -0.000757     -0.065929
82   2      9.37216      4.42719      9.59675        -0.000125      0.000942     -0.065901
83   2      5.96410      4.42719     12.01730        -0.000927      0.001111      0.042631
84   2      8.52014      2.95146     12.01730        -0.001311     -0.000728      0.042658
85   2      5.11208      5.90292     29.74940         0.001792     -0.000571     -0.042114
86   2      7.66813      7.37866     29.74940         0.001256     -0.000045     -0.042151
87   2      6.81612      5.90292      2.37160         0.000278     -0.000377      0.066462
88   2      9.37216      7.37866      2.37160        -0.000214     -0.000051      0.066363
89   2      5.96410      7.37866      4.77837         0.003376     -0.000057      0.006536
90   2      8.52014      5.90292      4.77837         0.002958     -0.000389      0.006472
91   2      5.11208      5.90292      7.18999        -0.002731     -0.000625     -0.007764
92   2      7.66813      7.37866      7.18999        -0.003367     -0.000057     -0.007602
93   2      6.81612      5.90292      9.59675         0.000462     -0.000396     -0.065959
94   2      9.37216      7.37866      9.59675        -0.000033     -0.000051     -0.065943
95   2      5.96410      7.37866     12.01730        -0.001268     -0.000045      0.042612
96   2      8.52014      5.90292     12.01730        -0.001677     -0.000421      0.042648
97   2      5.11208      8.85439     29.74940         0.001795      0.000469     -0.042167
98   2      7.66813     10.33010     29.74940         0.001261     -0.000927     -0.042250
99   2      6.81612      8.85439      2.37160         0.000272      0.000238      0.066464
100   2      9.37216     10.33010      2.37160        -0.000508     -0.001166      0.066444
101   2      5.96410     10.33010      4.77837         0.003675     -0.001175      0.006461
102   2      8.52014      8.85439      4.77837         0.002955      0.000254      0.006477
103   2      5.11208      8.85439      7.18999        -0.002728      0.000489     -0.007770
104   2      7.66813     10.33010      7.18999        -0.003366     -0.000916     -0.007509
105   2      6.81612      8.85439      9.59675         0.000467      0.000257     -0.065962
106   2      9.37216     10.33010      9.59675        -0.000119     -0.000989     -0.065897
107   2      5.96410     10.33010     12.01730        -0.000928     -0.001141      0.042722
108   2      8.52014      8.85439     12.01730        -0.001679      0.000318      0.042701
109   2      5.11208     11.80580     29.74940         0.001526      0.001172     -0.042201
110   2      7.66813     13.28150     29.74940         0.001234     -0.000115     -0.042040
111   2      6.81612     11.80580      2.37160        -0.000083      0.001144      0.066409
112   2      9.37216     13.28150      2.37160        -0.001082     -0.000179      0.066486
113   2      5.96410     13.28150      4.77837         0.004259     -0.000179      0.006451
114   2      8.52014     11.80580      4.77837         0.003317      0.001142      0.006508
115   2      5.11208     11.80580      7.18999        -0.003100      0.001339     -0.007514
116   2      7.66813     13.28150      7.18999        -0.003363      0.000010     -0.007392
117   2      6.81612     11.80580      9.59675         0.000361      0.001133     -0.065917
118   2      9.37216     13.28150      9.59675        -0.000378     -0.000048     -0.065801
119   2      5.96410     13.28150     12.01730        -0.000379     -0.000278      0.042528
120   2      8.52014     11.80580     12.01730        -0.001337      0.001012      0.042687
121   2     10.22420      0.00005     29.74940         0.000779     -0.000326     -0.042069
122   2     12.78020      1.47573     29.74940         0.001816      0.000491     -0.042142
123   2     11.92820      0.00005      2.37160        -0.000032     -0.000433      0.066426
124   2     14.48430      1.47573      2.37160        -0.000025      0.000272      0.066434
125   2     11.07620      1.47573      4.77837         0.003168      0.000753      0.006331
126   2     13.63230      0.00005      4.77837         0.002991     -0.000442      0.006440
127   2     10.22420      0.00005      7.18999        -0.003809     -0.000443     -0.007397
128   2     12.78020      1.47573      7.18999        -0.002731      0.000524     -0.007751
129   2     11.92820      0.00005      9.59675         0.000505     -0.000435     -0.065982
130   2     14.48430      1.47573      9.59675         0.000164      0.000292     -0.065967
131   2     11.07620      1.47573     12.01730        -0.001474      0.000723      0.042625
132   2     13.63230      0.00005     12.01730        -0.001533     -0.000324      0.042477
133   2     10.22420      2.95146     29.74940         0.000787     -0.000888     -0.042186
134   2     12.78020      4.42719     29.74940         0.001512      0.000975     -0.042139
135   2     11.92820      2.95146      2.37160         0.000117     -0.001507      0.066623
136   2     14.48430      4.42719      2.37160        -0.000379      0.000883      0.066400
137   2     11.07620      4.42719      4.77837         0.003337      0.001639      0.006357
138   2     13.63230      2.95146      4.77837         0.003290     -0.001021      0.006365
139   2     10.22420      2.95146      7.18999        -0.003888     -0.000963     -0.007547
140   2     12.78020      4.42719      7.18999        -0.003095      0.001076     -0.007508
141   2     11.92820      2.95146      9.59675         0.000520     -0.001030     -0.065741
142   2     14.48430      4.42719      9.59675         0.000056      0.000873     -0.065942
143   2     11.07620      4.42719     12.01730        -0.001345      0.001620      0.042582
144   2     13.63230      2.95146     12.01730        -0.001197     -0.001024      0.042620
145   2     10.22420      5.90292     29.74940         0.000508     -0.000571     -0.042122
146   2     12.78020      7.37866     29.74940         0.001512     -0.000045     -0.042148
147   2     11.92820      5.90292      2.37160         0.000312     -0.000863      0.066663
148   2     14.48430      7.37866      2.37160        -0.000527     -0.000051      0.066411
149   2     11.07620      7.37866      4.77837         0.003503     -0.000057      0.006529
150   2     13.63230      5.90292      4.77837         0.003878     -0.000589      0.006347
151   2     10.22420      5.90292      7.18999        -0.004257     -0.000625     -0.007790
152   2     12.78020      7.37866      7.18999        -0.003176     -0.000057     -0.007348
153   2     11.92820      5.90292      9.59675         0.000716     -0.000810     -0.065414
154   2     14.48430      7.37866      9.59675         0.000153     -0.000051     -0.065882
155   2     11.07620      7.37866     12.01730        -0.001194     -0.000045      0.042553
156   2     13.63230      5.90292     12.01730        -0.000679     -0.000576      0.042596
157   2     10.22420      8.85439     29.74940         0.000510      0.000469     -0.042175
158   2     12.78020     10.33010     29.74940         0.001514     -0.001005     -0.042229
159   2     11.92820      8.85439      2.37160         0.000306      0.000724      0.066665
160   2     14.48430     10.33010      2.37160        -0.000385     -0.000930      0.066396
161   2     11.07620     10.33010      4.77837         0.003339     -0.001685      0.006352
162   2     13.63230      8.85439      4.77837         0.003875      0.000453      0.006352
163   2     10.22420      8.85439      7.18999        -0.004254      0.000489     -0.007796
164   2     12.78020     10.33010      7.18999        -0.003097     -0.001122     -0.007504
165   2     11.92820      8.85439      9.59675         0.000722      0.000671     -0.065417
166   2     14.48430     10.33010      9.59675         0.000062     -0.000920     -0.065938
167   2     11.07620     10.33010     12.01730        -0.001347     -0.001651      0.042673
168   2     13.63230      8.85439     12.01730        -0.000681      0.000473      0.042649
169   2     10.22420     11.80580     29.74940         0.000813      0.001171     -0.042214
170   2     12.78020     13.28150     29.74940         0.001776     -0.000274     -0.041999
171   2     11.92820     11.80580      2.37160         0.000119      0.001881      0.066609
172   2     14.48430     13.28150      2.37160        -0.000014      0.000024      0.066454
173   2     11.07620     13.28150      4.77837         0.003165     -0.000445      0.006340
174   2     13.63230     11.80580      4.77837         0.003291      0.001395      0.006360
175   2     10.22420     11.80580      7.18999        -0.003889      0.001337     -0.007543
176   2     12.78020     13.28150      7.18999        -0.002726     -0.000218     -0.007760
177   2     11.92820     11.80580      9.59675         0.000517      0.001404     -0.065729
178   2     14.48430     13.28150      9.59675         0.000156      0.000005     -0.065986
179   2     11.07620     13.28150     12.01730        -0.001433     -0.000502      0.042481
180   2     13.63230     11.80580     12.01730        -0.001225      0.001308      0.042648
