ITEM: TIMESTEP
0
ITEM: NUMBER OF ATOMS
180
ITEM: BOX BOUNDS pp pp pp
0.0 15.336255 
0.0 14.75731
0.0 29.7984842388
ITEM: ATOMS id type x y z fx fy fz
1   2      0.26169     14.60530     29.50760        -0.010280      0.561019     -0.198760
2   2      2.76445      1.56347     29.39240        -1.045220     -0.857685     -0.011243
3   2      2.01525     14.61410      2.08393        -0.665118      0.341447      0.074965
4   2      4.35548      1.56620      2.23842        -0.787773     -0.842340      0.022033
5   2      0.60784      1.43501      4.72783         1.093986      0.159357     -0.023388
6   2      3.31513     14.74630      4.59576        -0.189886     -0.054777     -0.304823
7   2      0.07531     14.64850      7.14787         0.173335      0.581292      0.648547
8   2      2.49975      1.61407      7.23424         0.403153      0.127736     -0.158232
9   2      1.60728      0.45811      9.61051        -0.116968     -0.818398      0.130577
10   2      4.15785      1.60355      9.86964        -0.608625      0.526220     -0.087568
11   2      0.78834      1.52770     12.66310         0.043577      0.311711     -0.491169
12   2      3.31343     14.59670     11.98840        -0.257569      0.152652      0.388062
13   2      0.05192      2.98849     29.38910         0.605269     -0.342393      0.237979
14   2      2.62460      4.29976     29.48620        -0.318142      0.778920     -0.068127
15   2      1.80489      2.77037      2.06495        -0.349216     -0.033073      0.586997
16   2      4.26672      4.31770      2.12573         0.182746     -0.072729      0.131593
17   2      0.71595      4.48155      4.81772         0.465886     -0.249700      0.027180
18   2      3.41460      2.79860      4.78855        -0.719532      0.267407     -0.826573
19   2      0.06733      2.87222      7.42479        -0.456381      0.414410     -0.093669
20   2      2.74344      4.45868      7.08313        -1.131508      0.451189      0.055775
21   2      1.31925      3.11037     10.16120         0.893473      0.049462     -0.529463
22   2      4.05277      4.39867      9.48632        -0.169290      0.374521      0.476008
23   2      0.73355      4.64983     12.28790        -0.287428      0.054858      0.595969
24   2      3.34318      2.86727     12.41770         0.004474      0.167404     -0.331079
25   2      0.17838      5.96521     29.47950        -0.155222     -0.104313      0.215051
26   2      2.75439      7.30480     29.70120        -0.302639     -0.145050     -0.356316
27   2      1.84304      5.74340      2.30043         0.124608      0.003636      0.060097
28   2      4.45926      7.07962      2.25580        -0.124514     -0.025477      0.394280
29   2      1.24175      7.42205      4.87987        -0.666595     -0.702304     -0.163683
30   2      3.47733      5.85746      4.78187         0.340555      0.040556     -0.350579
31   2     15.19740      5.85734      7.21478         0.204551     -0.321240      0.209349
32   2      2.53114      7.58564      7.43971         0.656631     -0.539377      0.081393
33   2      1.50648      5.84106      9.64152         0.676725      0.069123     -0.299397
34   2      4.22532      7.41805      9.68109        -0.554831     -0.021972     -0.043640
35   2      0.55423      7.46410     12.25000        -0.073032      0.000440      0.061530
36   2      3.23288      5.90982     12.10810         0.295835     -0.140863     -0.193734
37   2      0.20766      8.86126     29.25960        -1.095285     -0.447414      0.123736
38   2      2.49432     10.13350     29.17490         1.146076      0.793652      0.389489
39   2      1.71816      8.84952      1.98358         0.510321     -0.427711      0.382810
40   2      4.45645      9.81194      2.47283        -0.538588      1.021055     -0.632737
41   2      1.20970     10.11280      4.73388        -1.106548      0.623644      0.082579
42   2      3.68965      8.89451      4.88650         0.351654     -0.929854      0.524625
43   2      0.10026      8.64583      7.26440        -0.739699      0.963282     -0.181784
44   2      2.61762     10.49610      7.15544        -0.556599     -0.100714      0.733686
45   2      1.53190      9.28941      9.86231         0.700231     -0.394471     -0.895969
46   2      4.20485     10.46880      9.73567        -0.381681      0.401484      0.631548
47   2      0.51866     10.40990     12.22090         0.743058      0.505795      0.311026
48   2      3.01598      8.78061     12.10010         0.764978      0.185273      0.263427
49   2      0.14181     11.81330     29.27680        -0.126967     -0.351939      0.279813
50   2      2.67729     13.16270     29.45060        -0.540073     -0.798622     -0.035773
51   2      1.90671     11.59930      2.51004        -0.172071      0.409930     -0.542843
52   2      4.30842     13.17840      2.30818         0.523995     -0.677652      0.162591
53   2      0.56869     13.35000      4.53090         0.358534     -0.320481      0.271310
54   2      3.53390     11.75170      4.80796         0.207247      0.582572     -0.627002
55   2      0.10016     11.84580      7.04610         0.076634     -0.256253     -0.455473
56   2      2.67116     13.60730      6.96323        -0.791929     -0.657556      0.192097
57   2      1.67236     12.38270      9.35596         0.047937     -0.400627      0.390833
58   2      4.24141     13.59170      9.50451        -0.961957     -1.309135      0.933290
59   2      0.59701     13.55800     11.98010         0.648521     -0.504239      0.037325
60   2      3.00327     11.71300     12.21690         0.250313      0.131304     -0.483646
61   2      4.91715     14.56850     29.65730         1.269437      0.329062     -0.024105
62   2      7.35593      1.42591     29.19520         0.250662     -0.125563      0.590554
63   2      6.71008     14.63970      2.38136        -0.147083     -0.846607     -0.659259
64   2      9.05709      1.26329      2.33624         1.157369      0.297286      0.109245
65   2      5.88552      1.20938      4.85137        -0.534087      1.377462     -0.082455
66   2      8.33752      0.02641      4.90358         1.530997     -0.799529     -0.602664
67   2      5.12759      0.10016      7.32383        -0.193108      1.160913     -1.615566
68   2      7.92332      1.42588      7.14308        -0.714458      0.224846      1.295923
69   2      6.56904      0.21082      9.53599         1.782171      0.402205      1.416004
70   2      9.18594      1.67936      9.89682        -0.137976     -1.220761     -0.346337
71   2      6.03283      1.53593     12.23460        -0.057545     -0.184828     -0.107730
72   2      8.48214     14.75367     12.30470         0.053361     -0.038585     -0.173994
73   2      5.03518      2.93094     29.11860         0.650483      0.174378      0.161238
74   2      7.51201      4.29190     29.36610         0.245309     -0.572360     -0.166879
75   2      6.75866      2.65334      2.32042         0.376360      1.347354     -0.229780
76   2      9.41650      4.08490      2.31430        -0.286461      0.535461      0.228742
77   2      5.86888      4.40236      4.47230         0.080538      0.427265      0.150933
78   2      8.19927      2.99063      4.89229         0.852337      0.133432     -0.597354
79   2      5.10226      3.05067      6.92134         0.980354     -0.040503      0.833287
80   2      7.67993      4.55286      7.19734        -0.894606     -0.289296      0.419610
81   2      6.48919      3.04607      9.66497         0.815349     -0.000316     -0.348475
82   2      9.42838      4.34265      9.63235        -0.767568      1.162319     -0.160000
83   2      5.92159      4.34813     12.32530        -0.189039      0.307974     -0.411294
84   2      8.56174      3.14104     12.18670        -0.587506     -0.008359      0.315199
85   2      5.11634      5.81068     29.49890        -0.008888     -0.189077     -0.288619
86   2      7.71241      7.03963     29.38990         0.479803      0.629485      0.321860
87   2      7.00417      5.59623      1.98428         0.197589      0.217670      0.813166
88   2      9.67918      7.42786      2.01542        -0.759555     -0.086438      0.258661
89   2      6.22029      7.36349      4.68260        -0.808182     -0.145081     -0.340631
90   2      8.59537      5.88757      4.83152        -0.059628     -0.294111     -1.243495
91   2      5.08427      6.23245      7.19300         0.105777     -0.336036     -0.137188
92   2      7.62936      7.52129      7.13988         0.095247      0.038627      0.218228
93   2      6.69285      5.80062      9.65240         0.135884      0.218613     -0.203757
94   2      9.41231      7.36821      9.54997        -0.258206      0.413641     -0.417262
95   2      5.77611      7.36232     11.92410        -0.010403     -0.189104      0.574328
96   2      8.58354      6.00024     11.81360        -0.345622     -0.545359      0.571137
97   2      5.27593      8.67158     29.44220        -0.031082      0.386472      0.201246
98   2      7.99035     10.43960     29.74400        -0.353475     -0.304652     -0.365999
99   2      6.89593      8.61188      2.04928         0.891338     -0.742391      0.075704
100   2      9.55257     10.40250      2.35408         0.020338     -0.369735      0.199027
101   2      6.13858     10.30400      4.91551         0.073338      0.108243     -0.000963
102   2      8.62122      8.76894      4.61122         0.227764      0.332049     -0.225889
103   2      5.09061      9.17982      7.51862         0.003352     -0.679969     -0.765505
104   2      7.57610     10.41870      7.41679         0.578591      0.584224     -0.255150
105   2      6.91085      8.83177      9.65191        -0.744013     -0.140685     -0.232218
106   2      9.22139     10.38910      9.85999         0.285461      0.390847     -0.513730
107   2      5.66923     10.30340     12.30730        -0.231332     -0.003510     -0.454264
108   2      8.24190      8.74854     11.98450         0.516782      0.418575      0.935610
109   2      5.08742     11.54910     29.79373        -0.141191     -0.146841      0.016184
110   2      8.04434     13.45080     29.69480        -0.428380      0.250538      0.012840
111   2      6.83946     11.36620      2.28451        -0.136428      1.084385      0.491253
112   2      9.36093     13.27150      2.32584         0.167314     -0.248033      0.630787
113   2      6.02633     13.31020      4.79282        -0.327924     -1.551783     -0.060341
114   2      8.55290     11.76570      4.89698         0.161085      0.095986      0.064839
115   2      4.96484     12.06600      7.17658         0.899807     -0.651851      0.391351
116   2      7.59403     13.40360      7.48584         0.526471     -0.670815     -0.568938
117   2      6.67580     11.96560      9.79864         0.256509     -0.401363     -0.242541
118   2      9.32793     13.41490      9.85116        -1.000491     -0.440374      0.220840
119   2      5.84018     13.32390     12.05960        -0.431352      0.403157      0.316535
120   2      8.05776     11.81470     12.46720         0.814319     -0.219916     -0.335599
121   2     10.61010      0.49499      0.14330        -0.834016     -0.714052      0.002783
122   2     13.11190      1.27459     29.71620         0.459773      0.609377     -0.193952
123   2     12.03290     14.50580      2.69468         0.295917      0.305636     -0.633553
124   2     14.63050      1.18810      2.22530         0.033466      0.769255      0.375281
125   2     10.88150      1.50162      4.79481        -0.071418     -0.094801      0.163452
126   2     13.44530      0.05202      5.28510        -0.420199      0.011110     -1.284962
127   2     10.56960      0.02560      7.33648        -0.997553      0.014044     -0.307024
128   2     12.72890      1.63698      7.47681         0.635326      0.634688      0.206829
129   2     11.62580     14.68120      9.94027         1.022042      0.728203      0.466129
130   2     14.39670      1.59981      9.96987        -0.801362     -0.357171     -0.389231
131   2     10.89650      1.62268     12.51660         0.404975     -0.611895     -0.433527
132   2     13.57290      0.12826     12.53010        -0.658999      0.393607     -0.364146
133   2     10.10750      3.20786     29.51670         0.265060      0.130515      0.169991
134   2     12.98540      4.21373     29.42920        -0.605981      0.459741      0.456386
135   2     11.88780      2.81218      2.44781         0.236952     -0.285518     -0.846115
136   2     14.67840      4.20877      2.20584        -0.246414     -0.228690     -0.055954
137   2     11.22310      4.44010      4.62695        -0.967490     -0.191481      0.168584
138   2     13.65360      2.82757      4.61736        -0.393744      0.382229      0.347445
139   2     10.13500      2.98289      7.26833         0.716915      0.086352     -0.316498
140   2     12.63970      4.58942      7.13004         0.142715     -0.620927      0.476786
141   2     11.79280      3.05515      9.80275         0.439620     -0.697747     -0.326493
142   2     14.15230      4.55730      9.83254         0.478360      0.392201     -0.555000
143   2     11.12590      4.42672     12.23230        -0.465698      0.549474      0.144342
144   2     13.51440      3.10733     12.14050         0.387980     -0.451943      0.848164
145   2     10.66910      6.08793     29.53700        -0.383543     -0.451572     -0.008195
146   2     13.03940      7.43947     29.21180         0.423366     -0.034674      0.032088
147   2     12.23690      5.91000      2.20398        -0.423779     -1.827484     -0.131096
148   2     14.77130      7.00571      2.63419         0.224258      0.743853     -0.408411
149   2     11.16660      7.42402      4.61467        -0.409068     -0.202804     -0.468780
150   2     13.56120      5.83802      4.78981         0.486442      0.165777      0.255124
151   2     10.08400      5.91900      7.07823         0.616436      0.232061      0.559563
152   2     12.49560      7.47300      7.06689         0.643323     -0.053813      0.314513
153   2     11.82470      6.07736      9.60762         0.361468     -0.340572     -0.023146
154   2     14.65240      7.45157      9.70454        -0.903805      0.122791     -0.098716
155   2     11.06660      7.28754     12.26190        -0.077994      0.581332     -0.309868
156   2     13.46680      6.01046     12.62180         0.375357     -0.033481     -0.472414
157   2     10.39670      8.99182     29.28100         0.034449     -0.237121      0.443614
158   2     12.97450     10.29910     29.36680         0.123311      0.205560      0.323156
159   2     12.25020      8.48269      1.94930        -0.018963      1.560230      0.115905
160   2     14.62480      9.91917      2.44492         0.189447      0.555977     -0.311348
161   2     11.16900     10.25130      4.72687        -0.525093     -0.000123      0.306169
162   2     13.72900      8.80659      4.80958         0.228807     -0.373559      0.227498
163   2     10.16040      9.04799      7.12412        -0.158497      0.222511      0.226323
164   2     13.02140     10.33710      7.19820        -0.569054     -0.129794      0.023752
165   2     11.94280      8.84770      9.51161        -0.295314      0.166563     -0.232457
166   2     14.59810     10.68220      9.51869        -0.422587      0.299546     -0.142842
167   2     10.72750     10.27700     12.21940         0.028265     -0.480646      0.157049
168   2     13.48910      9.29997     11.70960        -0.684022     -0.912484      0.585802
169   2     10.40610     11.87370      0.03322         0.228783     -0.196075     -0.189799
170   2     12.76580     13.23020     29.67030         0.483456     -0.119886      0.269776
171   2     12.27830     11.36730      2.35955        -0.427424      0.610508     -0.958713
172   2     14.79030     13.24080      2.02994        -0.464236     -1.108454      0.027444
173   2     11.06440     13.14900      4.82948        -0.443075     -0.052836      0.541728
174   2     13.56330     11.64530      4.70278         0.908695      0.693129      0.491277
175   2     10.18720     12.00370      7.53956         0.017097     -0.522227     -0.327760
176   2     12.88850     13.22270      7.41100        -0.699285     -0.744433     -0.274756
177   2     11.89320     11.63520      9.97508        -0.239837      0.384032     -0.587675
178   2     14.24070     13.56980      9.65634         0.536949     -0.039962      0.720629
179   2     10.88930     13.01070     12.55720        -0.248723      0.684843     -0.444382
180   2     13.52560     12.05240     12.20790         0.039119      0.249449      0.271978
