ITEM: TIMESTEP
0
ITEM: NUMBER OF ATOMS
144
ITEM: BOX BOUNDS pp pp pp
0.0 12.4883307881 
0.0 12.4883307881
0.0 35.7286733738
ITEM: ATOMS id type x y z fx fy fz
1   2      0.12914     12.31586     35.49000        -0.124380      0.354867      0.183491
2   2      2.18880      1.89167     35.65390        -0.498992      0.571978     -0.099977
3   2      2.37135     12.43848      1.95738        -1.146962     -0.002921     -0.132947
4   2     12.40578      2.00796      1.94482         0.278571     -0.015405      0.001521
5   2     12.40320      0.01179      3.95778         0.178272      0.432656      0.503322
6   2      1.96564      2.21349      4.10664         0.067305     -0.486833     -0.252627
7   2      1.99892      0.09090      6.25402         0.187109      0.294347     -0.567033
8   2     12.41000      2.21496      6.24991         0.248665      0.008347     -0.344230
9   2      0.24177     12.42750      8.32174        -0.688623      0.212046      0.501724
10   2      2.10966      2.17117      8.37412        -0.070852     -0.393195     -0.238414
11   2      2.34868     12.31290     10.44780        -0.445078      0.248246     -0.227196
12   2     12.43770      2.13945     10.41470         0.448276     -0.742494      0.351957
13   2      0.11215      0.00037     12.60160         0.041192      0.401039     -0.005094
14   2      2.18965      2.00687     12.48970        -0.830527     -0.207141      0.327522
15   2      2.18421     12.32440     14.69590        -0.328685      0.237872     -0.122081
16   2      0.01007      2.01930     14.84920        -0.092958     -0.101780     -0.592459
17   2      0.04825      4.03115     35.65790        -0.258351     -0.274353     -0.158387
18   2      2.24315      6.51220     35.70350        -0.285245     -0.336346     -0.565852
19   2      2.05123      4.13991      1.87373         0.257273     -0.129716     -0.138284
20   2     12.45250      6.14948      1.73121        -0.207913      0.281075      0.130970
21   2     12.38819      4.15919      3.87792        -0.085315     -0.305946      0.357764
22   2      2.00449      6.13737      3.98792        -0.250147      0.613606      0.294006
23   2      2.16321      4.15292      6.10064        -0.359400      0.135307      0.313655
24   2      0.04977      6.22089      6.27800        -0.404586     -0.188972     -0.348002
25   2     12.42939      4.14205      8.38616        -0.240609      0.000616     -0.564058
26   2      2.00741      6.17664      8.34158         0.490489      0.017289      0.194523
27   2      2.06053      4.08886     10.45220         0.152568      0.423353      0.217698
28   2     12.45909      6.14849     10.37010        -0.141172      0.789062      0.103950
29   2     12.35724      4.29097     12.43500         0.683642     -0.690248      0.816345
30   2      2.05243      6.16903     12.61890         0.103939     -0.062656     -0.564642
31   2      2.02237      4.00796     14.64170        -0.285268     -0.122609      0.238328
32   2      0.09976      6.18369     14.67050        -0.617392     -0.354072      0.149055
33   2      0.04487      8.23125     35.46710        -0.205945      0.324949      0.316468
34   2      1.95301     10.33410     35.66290         0.683703     -0.258191     -0.211749
35   2      2.16875      8.45376      2.08914        -0.053425      0.166860      0.192448
36   2      0.12057     10.41920      2.05004        -0.099569     -0.537920      0.128781
37   2      0.03617      8.19789      4.12141         0.181276      0.158262     -0.047644
38   2      2.20579     10.54680      4.19220        -0.369993     -0.236058     -0.566420
39   2      2.23847      8.24975      6.36136        -0.195975      0.289982     -0.038782
40   2     12.47700     10.37590      5.90841         0.038661     -0.092723      0.861257
41   2      0.11156      8.34766      8.22810        -0.347959      0.317899      0.088998
42   2      2.20775     10.44850      8.38313         0.228810     -0.545068     -0.155398
43   2      2.11541      8.35015     10.48730        -0.334499     -0.203364      0.007592
44   2     12.47940     10.46430     10.43240         0.688075     -0.005363     -0.434289
45   2     12.36620      8.22532     12.54560         0.112507      0.240008     -0.532031
46   2      2.13893     10.34470     12.59900        -0.274003     -0.095203      0.120997
47   2      1.91577      8.19396     14.51640         0.452598      0.711824      0.507023
48   2     12.36620     10.43470     14.65920         0.513666     -0.351697     -0.220698
49   2      4.34135      0.21460     35.56520        -0.044736     -0.289602     -0.479334
50   2      6.32301      2.25081     35.56920        -0.363966     -0.369022     -0.062364
51   2      6.17752      0.06867      1.93189         1.150878      0.265552      0.143491
52   2      4.21715      2.14043      1.97210        -0.423644      0.706740     -0.307183
53   2      4.15155      0.17357      4.02053         0.375478     -0.021584      0.687216
54   2      6.21445      2.31884      3.81747         0.518719     -0.069684      0.633817
55   2      6.33143     12.44554      6.10047        -0.142172      0.658140      0.175645
56   2      4.19668      2.12643      6.13140         0.176442      0.067429     -0.123198
57   2      4.27432      0.14647      8.18451        -0.202312     -0.005043      0.492782
58   2      6.26446      2.15208      8.45320         0.274481     -0.047012     -0.428865
59   2      6.24902      0.06387     10.50920         0.231497     -0.226039     -0.096585
60   2      4.17863      2.14164     10.48280         0.196791     -0.138218     -0.194080
61   2      4.18328     12.43750     12.49460         0.270530     -0.300230      0.562337
62   2      6.21408      1.95875     12.67920         0.159303      0.532197      0.180864
63   2      6.21413     12.41083     14.61350         0.029377     -0.235846      0.301399
64   2      4.14701      1.89418     14.76160        -0.129230      0.136756     -0.109580
65   2      4.19996      4.18811     35.59560        -0.145887      0.158388      0.047626
66   2      6.22801      6.33344     35.23177        -0.396678      0.139471      0.402851
67   2      6.20425      4.57646      1.85838        -0.058116     -0.582297      0.038410
68   2      4.03964      6.40477      1.97032         0.787482      0.267481      0.040683
69   2      4.14453      4.39045      3.94067         0.183551     -0.762520      0.335989
70   2      6.22152      6.32507      4.04819        -0.217094      0.306037      0.561971
71   2      6.30243      4.12161      6.09678        -0.142745      0.272832      0.389749
72   2      4.21606      6.14472      6.33689         0.275780      0.514016     -0.215408
73   2      4.14208      4.15751      8.30617         0.243985     -0.058648      0.176203
74   2      6.26683      6.16883      8.53686        -0.144128     -0.221009     -0.757083
75   2      6.24482      4.13911     10.61680        -0.453366     -0.105046      0.179842
76   2      4.18055      6.18283     10.50960        -0.580202     -0.456881      0.335396
77   2      4.00042      4.11688     12.70650         0.779489      0.059917     -0.294078
78   2      6.15358      6.12462     12.88810        -0.677411      0.511765     -0.064023
79   2      6.08779      3.99246     14.85500         0.369368     -0.325444     -0.191349
80   2      4.14454      5.98215     14.96970        -0.229848      0.435571     -0.343958
81   2      4.19653      8.54376     35.33770         0.103589     -0.263770      0.474063
82   2      6.14707     10.55140     35.50380         0.590403      0.056013     -0.258781
83   2      6.28041      8.33267      1.97123        -0.612781      0.153248     -0.322223
84   2      4.37067     10.52790      1.86088        -0.699626     -0.987252      0.437931
85   2      4.11264      8.43398      4.32847        -0.083527     -0.817957     -0.489423
86   2      6.13683     10.25430      4.21229         0.224522      0.655294     -0.349087
87   2      6.12999      8.51086      6.50077         0.046029     -0.551171     -0.222453
88   2      4.12091     10.65480      6.20121         0.085263     -0.471811      0.488851
89   2      4.32808      8.31001      8.63673        -0.551319      0.159962     -0.695277
90   2      6.28376     10.59930      8.42904        -0.030028     -0.089136      0.091591
91   2      6.28223      8.05234     10.69000        -0.008928      0.610197      0.075241
92   2      4.44757     10.10590     10.79280        -0.507963      0.994884     -0.779615
93   2      4.12166      8.16502     12.72930         0.143530     -0.227308      0.548333
94   2      6.43219     10.22290     12.66380        -0.078505      0.097487      0.528044
95   2      6.11401      8.26182     14.93550         0.150635     -0.076399     -0.403919
96   2      4.18776     10.36010     14.79840         0.053623     -0.157005     -0.370673
97   2      8.52354     12.25110     35.52905        -0.485169      0.141689      0.288553
98   2     10.56650      1.77070     35.52420        -0.145557      0.381765      0.062225
99   2     10.55900     12.25155      1.80292        -0.662709      0.318439      0.429687
100   2      8.28647      2.06811      1.80259        -0.224412     -0.506930     -0.208049
101   2      8.29316      0.02515      4.05766        -0.211917      0.214731     -0.043980
102   2     10.12390      2.08912      3.87588         0.812703      0.007547      0.368742
103   2     10.51480      0.11527      6.34678         0.018352     -0.141576     -1.225095
104   2      8.27465      2.11567      6.13191        -0.209501     -0.327415      0.221410
105   2      8.46503      0.08068      8.33202        -1.102296     -0.090304      0.249205
106   2     10.43540      1.95286      8.36337         0.141413      0.976400      0.217198
107   2     10.30530      0.17097     10.60550         0.216261      0.183839     -0.445151
108   2      8.26375      2.18285     10.74800        -0.082195     -0.475915     -0.175372
109   2      8.40814     12.31403     12.80630        -0.241411      0.686038     -0.225300
110   2     10.45560      2.17050     12.70460        -0.102608     -0.364944      0.744128
111   2     10.41370     12.31190     14.82240        -0.149033      0.600718     -0.186665
112   2      8.35873      1.99491     14.85590         0.037296      0.143670     -0.553171
113   2      8.13041      4.25759     35.59720         0.516765      0.494852     -0.287758
114   2     10.25840      6.60112     35.49640        -0.259404     -0.147287      0.297104
115   2     10.13710      4.09395      1.78164         0.722238      0.531631     -0.136545
116   2      8.29323      6.47980      1.88539         0.449828     -0.280870     -0.149082
117   2      8.35047      4.43792      4.11290        -0.478848     -0.210773     -0.455185
118   2     10.53400      6.18186      3.99603        -0.287364      0.303750      0.230261
119   2     10.23680      4.09553      6.07100         0.714176      0.330897      0.620962
120   2      8.29279      6.37526      6.46658        -0.601520     -0.667494     -0.448205
121   2      8.34063      4.13587      8.49308         0.084120     -0.120225     -0.425134
122   2     10.35620      6.22681      8.36749         0.244586     -0.118368      0.050643
123   2     10.33370      3.99170     10.56380        -0.296896      0.811012     -0.546405
124   2      8.21590      6.17007     10.62950         1.011354     -0.431334     -0.622733
125   2      8.22708      4.39116     12.78730         0.273026     -2.185056     -0.363894
126   2     10.36330      6.19073     12.64140         0.360986      0.356892     -0.234830
127   2     10.43740      4.26910     14.86950         0.125886     -0.498598     -0.306613
128   2      8.34021      6.20874     14.66050        -0.070296      1.123847      1.160087
129   2      7.96229      8.50162     35.17910         0.429756     -0.121736      0.487602
130   2     10.32410     10.13480     35.70550         0.052615     -0.390821     -0.160680
131   2     10.45350      8.30300      2.12161         0.025597      0.289806     -0.097614
132   2      8.15329     10.40860      2.23074         0.412007     -0.057507     -0.728828
133   2      8.22313      8.27598      4.25828         0.120678     -0.159005     -0.423862
134   2     10.29780     10.44150      4.15969         0.233143     -0.054315     -0.389876
135   2     10.21250      8.31015      6.19310         1.071363      0.152402      0.290507
136   2      8.31451     10.44310      6.17891        -0.079862      0.089343      0.374408
137   2      8.22543      8.34357      8.50908        -0.016623      0.227963     -0.207063
138   2     10.40190     10.56470      8.17273         0.462030     -0.666357      0.406287
139   2     10.46940      8.48241     10.16530         0.225270     -0.438783      0.433531
140   2      8.33199     10.42190     10.48230        -0.241811      0.295107     -0.263648
141   2      8.48706      8.25253     12.40160         0.125009      0.461464      0.695966
142   2     10.50780     10.54680     12.30360        -0.095462     -0.834341      1.090796
143   2     10.37060      8.40076     14.57110         0.072602     -0.158737      0.071273
144   2      8.33000     10.26110     14.78670        -0.203475     -0.069776     -0.032716
