ITEM: TIMESTEP
0
ITEM: NUMBER OF ATOMS
180
ITEM: BOX BOUNDS pp pp pp
0.0 15.336255 
0.0 14.75731
0.0 29.7984842388
ITEM: ATOMS id type x y z fx fy fz
1   2      0.30931     14.58910     29.68710        -0.618257     -0.106796     -0.459333
2   2      2.70084      1.37681     29.74340         0.427311     -0.029174     -0.612581
3   2      1.80061     14.54430      2.14374         0.247975     -0.355232      0.900495
4   2      4.49375      1.49784      2.49603        -0.807540     -0.295835     -0.144304
5   2      0.75905      1.16430      4.59448        -0.058772      0.355760     -0.049463
6   2      3.31894     14.58160      4.70765         0.416405      0.672453      0.210102
7   2     15.27120     14.66033      7.00588        -0.109796      0.017248      0.711060
8   2      2.29425      1.36261      7.35844         0.504274      0.108843     -0.333818
9   2      1.50414     14.68670      9.78422         0.295062      0.906457      0.107237
10   2      4.02834      1.63174      9.74063        -0.304101     -0.028614     -0.140404
11   2      0.82486      1.73170     12.03470         0.133008     -0.806250     -0.139557
12   2      3.42430      0.33409     12.15970        -0.514444     -0.412727      0.084334
13   2      0.17067      2.85553     29.59390         0.070847     -0.240689     -0.021614
14   2      2.65139      4.25258     29.25130         0.246673      0.090512      0.498661
15   2      1.90179      2.66405      2.20016        -0.652199     -0.059191      0.093648
16   2      4.07976      4.29508      2.11944         0.722184      0.782300     -0.007355
17   2      0.91254      4.15753      4.27229        -1.011949      0.123855      1.322582
18   2      3.17157      2.78009      4.88054         0.864920     -0.526456      0.213336
19   2     15.32980      3.07792      7.04312        -0.284574     -0.127501     -0.491837
20   2      2.55624      4.61368      6.98911        -0.404632     -0.377752      0.311653
21   2      1.56435      3.19718      9.42181         0.464881     -0.325486      0.377412
22   2      4.18749      4.63528      9.56735        -0.737382      0.210417      0.149741
23   2      0.72837      4.58901     12.20080        -0.387272      0.914857     -0.311777
24   2      3.04186      3.30495     12.37850         1.076745     -1.129597     -0.224535
25   2      0.07233      5.75515     29.75400         0.420584     -0.025329     -0.334481
26   2      2.75397      7.13138     29.62920        -0.547466      0.207207      0.041179
27   2      1.65609      5.91993      2.40265         0.074838      0.294841     -0.929187
28   2      4.35771      7.31567      2.33334         0.476476     -0.563808     -0.357789
29   2      0.62237      7.35991      4.62702         0.070914     -0.176322     -0.239014
30   2      3.32281      5.74119      4.65340         0.319994      0.394163     -0.208497
31   2     15.14810      5.95732      7.06146         0.472857      0.263276     -0.487297
32   2      2.52064      7.57047      7.04795        -0.052011     -0.316113     -0.175316
33   2      1.72556      6.06233      9.27382        -0.378889      0.265280      0.625160
34   2      4.08747      7.50743      9.72176         0.004639      0.385130     -0.089284
35   2      1.01912      7.76270     12.14430         0.157938     -0.607596     -0.346026
36   2      3.39212      5.93224     12.13400        -0.655874      1.216167     -0.076309
37   2      0.25424      8.54437     29.44120        -0.214185      0.572951      0.374941
38   2      2.98912     10.06770     29.69460        -0.231754     -0.305101     -0.142501
39   2      1.84921      8.72581      2.10760        -0.489565      0.300617      0.268183
40   2      4.64555     10.17510      2.28130        -0.681586      0.442012     -0.142634
41   2      0.77915     10.34400      4.60466        -0.263481     -0.820995      0.272834
42   2      3.36282      8.64866      4.54619        -0.318593      0.534337      0.394831
43   2     15.10070      8.83846      6.84239         0.556088      0.158985      0.842974
44   2      2.51197     10.34290      6.89016        -0.461414      0.464282      0.481572
45   2      1.45892      9.12657      9.34394         1.011791     -0.518338     -0.052199
46   2      4.42954     10.49920      9.82357        -0.696993      0.412206     -0.122819
47   2      1.09212     10.57520     12.13620        -0.199375      0.209016     -0.177046
48   2      3.51378      9.13055     12.09470         0.047091     -0.197393      0.173671
49   2      0.35962     11.58680     29.30420        -0.856119     -0.512909      0.448526
50   2      2.70543     12.78760     29.70930         0.778429      0.879858      0.268821
51   2      1.48260     11.61070      2.36724         0.492309      0.266633     -0.763762
52   2      4.39861     13.11830      2.41115         0.002220     -0.032736     -0.231610
53   2      0.93164     13.08070      4.86585        -0.479907      0.313233     -0.318593
54   2      3.45174     11.80490      4.75809         0.262131     -0.407909     -0.209099
55   2     15.15270     11.75220      7.12191         0.643373     -0.365544      0.420082
56   2      2.67823     13.25370      7.43362        -0.063897      0.083836     -1.074863
57   2      1.84534     11.98430      9.62189        -0.361081     -1.100503      0.588125
58   2      4.30889     13.51950      9.76903         0.360818     -0.048406      0.229409
59   2      0.69733     13.36540     12.35480         0.440988      0.110869     -0.390590
60   2      3.69089     12.05940     12.26670        -0.897763     -0.079989     -0.169671
61   2      5.13859     14.66410      0.02052         0.093674     -0.367342      0.115072
62   2      8.00960      1.47463      0.15212        -0.890170     -0.093297     -1.004707
63   2      6.83996      0.07909      2.55546         0.475966     -1.009218     -0.130520
64   2      9.29759      1.52869      2.50798         1.045423     -0.589829      0.967196
65   2      6.10319      1.62192      4.78059        -0.533952     -0.964833      0.660582
66   2      8.61493     14.43598      5.02841        -0.946715      1.301815     -1.435237
67   2      5.06298      0.08595      7.26274         0.188386      0.147070     -0.215693
68   2      7.70550      1.49605      7.12645        -0.371529     -0.103214      0.651474
69   2      6.89349      0.33726      9.62606        -0.354903     -0.570464     -0.253306
70   2      9.46809      1.52740      9.62346        -0.500105     -0.652669      0.849387
71   2      5.77070      1.77213     12.19550        -0.109875     -0.434735      0.061531
72   2      8.29547      0.46559     12.02830         0.542141     -0.542058      0.192537
73   2      5.40304      2.74469     29.72580        -0.339812      0.392403     -0.208363
74   2      7.76053      4.42817     29.53927        -0.166199      0.361501      0.255974
75   2      6.93525      2.93749      2.31633        -0.517962      0.789595      0.282170
76   2      9.34493      4.39543      2.38510         0.250601     -0.069989      0.260501
77   2      5.76283      4.30594      4.80875        -0.202194      0.503016      0.137732
78   2      8.44014      3.10188      5.03010         0.808603     -0.368102     -0.615738
79   2      4.92411      2.96120      7.37454        -0.076065     -0.243002     -0.821141
80   2      7.45670      4.44545      7.34112         0.216793      0.160464      0.363251
81   2      6.42801      3.13810      9.72330         1.212974     -0.157944     -0.319926
82   2      9.24288      4.65811      9.72745        -0.179406     -0.020212     -0.163199
83   2      5.73074      4.52372     12.05320         0.131305      0.667882      0.491016
84   2      8.19345      3.26006     12.02440         0.613131      0.015868      0.012317
85   2      5.08743      5.93729     29.13890         0.775170     -1.144611      0.428994
86   2      7.90865      7.41466     29.50060        -0.267801     -0.359870     -0.375796
87   2      6.84990      5.77967      2.61549        -0.575711      0.277772     -0.620868
88   2      9.30296      7.17642      2.04561         0.020227      0.079188      0.728184
89   2      5.87790      7.33399      4.95802        -0.161344      0.020158     -0.690640
90   2      8.38598      5.81285      4.91709         0.299990      0.672045     -0.014729
91   2      5.09183      6.02200      7.26112        -0.461149     -0.029746      0.021922
92   2      7.44825      7.57395      7.24303         0.383025     -1.030385      0.373355
93   2      6.76539      6.25057      9.69607         0.007828     -0.876590      0.039323
94   2      9.34714      7.51609      9.85735        -0.001262      0.111961      0.151283
95   2      5.81548      7.45847     12.27160         0.265782      0.081894     -0.130054
96   2      8.44242      6.11100     12.29680        -0.143535     -0.022965     -0.177646
97   2      5.42632      8.59273     29.36700        -0.300731      0.569498      0.335113
98   2      7.66615     10.35860     29.45860         1.257022     -0.898528     -0.166046
99   2      6.99540      8.82514      2.43993         0.106823     -0.513902     -0.250537
100   2      9.44794     10.16570      1.87364        -0.345922      0.357247      0.149174
101   2      5.83476     10.23680      4.80655         0.375065      0.304532      0.350022
102   2      8.42447      8.81187      4.84058         0.147189      0.021349      0.080044
103   2      4.94745      9.14651      7.39693         0.306721     -0.403054     -0.200567
104   2      7.67008     10.21410      7.36549        -1.441463      0.420577      0.014570
105   2      6.69278      8.95370      9.91654         0.465888      0.243641     -0.058512
106   2      9.38206     10.48610      9.93449         0.416731     -1.367337     -0.069163
107   2      6.15173     10.68580     12.37260        -0.067550     -0.441080     -0.013956
108   2      8.43691      9.00593     12.28860         0.254177     -0.107765      0.002418
109   2      5.40556     11.63350     29.57630        -1.375174      0.646648      0.123617
110   2      7.77196     13.19260     29.68020         0.303864      0.766589     -0.543372
111   2      7.09539     11.87160      2.13962        -0.963171     -0.586199      0.944387
112   2      9.44361     13.21200      2.29220         0.361830      0.833184     -0.230748
113   2      5.99401     13.20800      4.91542         0.037120     -0.004085     -0.069702
114   2      8.64626     11.67780      4.52904        -1.572610     -0.244956      0.454925
115   2      5.39142     11.97210      7.50872        -0.365325     -0.033547     -0.322294
116   2      7.83519     13.35010      7.32683        -0.599907     -0.331811      1.043662
117   2      6.99761     11.85440      9.89309        -0.372942      0.744720     -0.289376
118   2      9.61579     13.14940      9.75025        -0.093503      1.262868     -0.233077
119   2      5.99008     13.51330     12.29940         0.419726      0.565295     -0.303616
120   2      8.68454     12.07380     12.27040        -0.218231      0.040307      0.139305
121   2     10.22300     14.70720     29.65910         0.573242     -0.241155      0.121645
122   2     12.56200      1.58487     29.61460         0.589286     -1.455586      0.171587
123   2     12.04360     14.67303      2.41911        -0.291592      0.131578     -0.205523
124   2     14.50200      1.39909      2.13540         0.125560     -0.433470      0.059403
125   2     11.03030      1.56881      4.90250        -0.587249     -0.525945      0.078185
126   2     13.45270      0.03389      4.88776         0.090510     -0.512348     -0.311306
127   2     10.29010      0.00754      7.15881         0.152805     -0.354629      0.676735
128   2     12.65280      1.46377      7.27344         0.481787      0.760195     -0.519635
129   2     11.99340     14.75070      9.49287        -0.214111     -0.232852      0.786088
130   2     14.43520      1.59789      9.39143         0.198526     -0.006118      0.430795
131   2     11.23020      1.31480     12.11560        -0.443679      0.283067     -0.335581
132   2     13.68780      0.13128     12.14090         0.143426     -0.147188     -0.063193
133   2     10.34610      3.11375     29.77280        -0.483618      0.116098     -0.071899
134   2     12.97850      4.19832     29.54260        -0.071437      0.895771     -0.282726
135   2     11.90240      2.70887      2.53472        -0.191998      0.629406     -0.691432
136   2     14.46000      4.23018      2.14562        -0.165863      0.297611      0.403215
137   2     11.14150      4.33519      4.96956        -0.792560      0.303704     -0.292395
138   2     13.62260      2.90627      4.68789         0.668264     -0.133045      0.474506
139   2     10.12090      3.03710      7.53796         0.101358      0.566695     -1.353150
140   2     12.67470      4.67521      7.33768        -0.146201     -0.923513     -0.110372
141   2     11.77620      3.07696      9.73400         0.948462      0.133411      0.409049
142   2     14.54020      4.61824      9.46838        -0.471175     -0.322988      0.653463
143   2     10.86710      4.39806     12.12870         0.229769     -0.045892      0.003864
144   2     13.76380      3.00677     12.15430        -0.963544      0.201341     -0.395304
145   2     10.43150      5.92287     29.42020        -0.514656     -0.060841     -0.281008
146   2     12.92300      7.18499     29.52050        -0.016042      0.474177     -0.350552
147   2     11.85480      5.65603      1.98877         0.196984     -0.137728      0.932545
148   2     14.23400      7.32665      2.16591         0.623904     -0.380300      0.597835
149   2     10.87070      7.34717      4.63449         0.108641     -0.204228     -0.025319
150   2     13.45510      5.73911      4.66021         0.516724      0.628546     -0.344853
151   2     10.10650      5.99676      7.12501        -0.241964     -0.374708      0.468096
152   2     12.60880      7.45082      7.15092         0.037437     -0.047445      0.006316
153   2     11.88960      6.04687      9.73838        -0.376608     -0.548296     -0.192516
154   2     14.46690      7.43638      9.61806         0.458808      0.165553     -0.158190
155   2     11.03480      7.29077     12.55410        -0.064012      0.192952     -0.480743
156   2     13.54510      5.90942     12.00030         0.156963     -0.471650      0.291605
157   2     10.38650      8.84586     29.33840         0.184627      0.054917      0.024615
158   2     12.93750     10.43200     29.63270         0.518941     -0.705352     -0.353580
159   2     11.69390      8.59487      2.14451         0.754688      0.081015     -0.063644
160   2     14.27880     10.09560      2.26291         0.419309      0.356658      0.086675
161   2     10.86660     10.28060      4.32040         0.850365     -0.569813      0.478001
162   2     13.37640      8.88482      4.67397        -0.162123     -0.509130     -0.382707
163   2     10.11020      8.73094      7.46971         0.213794      0.212332     -0.224192
164   2     12.61980     10.21450      7.20645        -0.344893      0.331608      0.240519
165   2     12.02390      8.75739      9.99190        -0.544852      0.505075     -0.576942
166   2     14.51720     10.39520      9.76892        -0.281549      0.289670     -0.051600
167   2     11.24330     10.20620     12.31850        -0.346113      0.003532      0.059489
168   2     13.72920      8.65740     12.22400        -0.008782      0.608826      0.177346
169   2     10.58750     11.85160     29.51000        -1.025400     -0.066921     -0.252442
170   2     12.96300     13.28600     29.53630         0.173083      0.654882     -0.257253
171   2     11.94560     11.87490      2.14518         0.012678     -0.484864      0.601766
172   2     14.42010     13.09720      2.09232         0.641018      0.155847      0.614690
173   2     10.94940     13.19510      4.75219         1.327691     -0.071298      0.213821
174   2     13.36110     11.70990      4.81684         0.341137      0.411796     -0.456708
175   2      9.90383     11.48160      7.23038         1.856354      1.075587     -0.295677
176   2     12.76500     13.08800      7.29355        -0.590173      0.286149     -0.078612
177   2     12.05140     11.61430      9.73877        -0.251763      0.341213     -0.192766
178   2     14.45240     13.32630      9.79603        -0.122168     -0.258869     -0.352849
179   2     11.26610     13.13710     12.26140        -0.342478      0.568472     -0.241566
180   2     13.61040     11.80270     12.25130         0.770613     -0.324571     -0.003533
