ITEM: TIMESTEP
0
ITEM: NUMBER OF ATOMS
144
ITEM: BOX BOUNDS pp pp pp
0.0 12.4883307881 
0.0 12.4883307881
0.0 35.7286733738
ITEM: ATOMS id type x y z fx fy fz
1   2      0.02381     12.39916      0.20485        -0.007899      0.394375     -0.656299
2   2      2.01167      1.91858     35.47445         0.164690      0.085295      0.418540
3   2      2.12889      0.01355      2.07915        -0.109505      0.010941     -0.350006
4   2      0.05714      1.95733      2.11862        -0.481755      0.438968     -0.084312
5   2     12.44510     12.39708      4.30750        -0.306423      0.294595     -0.428290
6   2      2.02941      1.99551      4.13990         0.207065      0.088759      0.212136
7   2      2.11514     12.41451      6.26713        -0.078312      0.139668     -0.057134
8   2     12.29250      2.07835      6.23766         0.704128     -0.283510     -0.257789
9   2      0.19038      0.11274      8.70499        -0.388969     -0.240375     -0.967717
10   2      2.05299      2.16259      8.19435         0.147672     -1.267210      0.681349
11   2      2.15395     12.39230     10.55990         0.456972      0.270601      0.400860
12   2     12.41399      2.13056     10.66720        -0.152874     -0.192285     -0.502507
13   2     12.48208      0.14090     12.62150        -0.822099     -1.093000      0.024639
14   2      2.01178      1.92547     12.72630         0.584272      1.313910     -0.406013
15   2      2.01870     12.48310     14.67420         0.001032     -0.224623      0.680359
16   2      0.06699      2.18853     14.86380        -0.141495     -0.039698     -0.097552
17   2      0.12688      4.14511     35.38211        -0.137273      0.047427      0.606251
18   2      2.23119      6.17745     35.48548        -0.085550      0.183314      0.138682
19   2      2.21121      4.04671      1.89742        -0.568192     -0.154084      0.085579
20   2      0.22192      6.20332      1.84896        -0.823600     -0.434039     -0.323974
21   2      0.14998      4.19870      4.06346        -0.056470     -0.284666     -0.236295
22   2      2.14619      6.35323      3.87231         0.171619     -0.373756      1.209388
23   2      2.25475      4.01219      6.21954        -0.528935      0.849457     -0.606597
24   2     12.43314      6.09725      6.14323         0.833618      0.352789      0.009873
25   2      0.04744      3.96202      8.41722        -0.502082      0.635773     -0.324265
26   2      1.95465      6.17953      8.29764         1.168621     -0.897793     -0.121287
27   2      1.91474      4.19714     10.53020         0.789266     -0.590136     -0.182550
28   2      0.01962      6.28939     10.46160        -0.288712      0.069649      0.024475
29   2     12.44008      4.05384     12.63360        -0.027779      0.457769      0.275816
30   2      2.00684      6.22753     12.40700        -0.287634      0.416611      0.945059
31   2      2.02073      4.40327     14.66760        -0.095604     -0.733473      0.163770
32   2      0.16056      6.35138     15.02810        -0.529085      0.217834     -0.563382
33   2      0.07429      8.33556     35.66657        -0.244041     -0.491248     -0.208855
34   2      1.93632     10.40040     35.62422         0.670278      0.160543     -0.042763
35   2      2.18463      8.34505      1.83809         0.163212      0.030116      0.024900
36   2     12.47398     10.27920      2.20249         0.061908      0.356346      0.087511
37   2      0.05816      8.14692      4.05294        -0.339874      0.216391      0.427220
38   2      2.08914     10.37010      4.07878        -0.066147     -0.119445      0.420071
39   2      2.24382      8.44656      6.26892        -0.222237     -0.339881     -0.397757
40   2      0.01815     10.44930      6.26210         0.241076     -0.300742      0.030619
41   2      0.27187      8.17105      8.25323        -1.047608      1.231811     -0.064168
42   2      2.29737     10.56500      8.39509        -0.295772     -0.200342     -0.148735
43   2      2.24972      8.46369     10.33730        -0.352270     -0.313422      0.269454
44   2      0.07521     10.22060     10.51100        -0.095879      0.395066      0.266647
45   2     12.25643      8.22774     12.69840         0.338226     -0.375276     -0.315637
46   2      2.06458     10.41650     12.74030        -0.032788      0.270622     -0.581509
47   2      2.04559      8.40056     14.58060        -0.094682     -0.369316      0.459595
48   2     12.34968     10.26570     14.52370         0.235332      1.003608      0.356976
49   2      4.24056     12.38566     35.46781        -0.430559      0.009898      0.138388
50   2      6.19415      2.08079     35.53033         0.423583      0.099604     -0.109222
51   2      6.30039     12.47057      1.70924         0.273108     -0.294176      0.120761
52   2      4.29193      1.96519      1.90594        -0.504735      0.155097      0.064475
53   2      4.18784     12.44112      4.00254         0.000508      0.243860      0.413727
54   2      6.21795      2.04052      4.06534        -0.117257      0.732221     -0.462352
55   2      6.30498      0.03987      6.09269        -0.343945     -0.260792      0.211611
56   2      4.22292      1.92583      6.19073        -0.126949      0.457280     -0.445733
57   2      4.27965      0.13299      8.30988        -0.466745     -0.256443      0.518040
58   2      6.28646      2.06281      8.28630        -0.121533      0.417186      0.426641
59   2      6.23914      0.08952     10.53470        -0.261704     -0.227869      0.273876
60   2      4.23127      2.10377     10.56030        -0.507384     -0.123829      0.122716
61   2      4.09695      0.08515     12.74720         0.645571     -0.027116     -0.219628
62   2      6.28686      2.15537     12.72360        -0.570966     -0.021969      0.096187
63   2      6.28036      0.19807     14.86360        -0.210346     -0.092033     -0.172757
64   2      4.06888      2.30332     14.86210         0.134560     -0.282717     -0.215510
65   2      4.05563      4.04182     35.57571         0.140286     -0.060564     -0.452201
66   2      6.04992      6.20308     35.52269         0.112078      0.059915     -0.062055
67   2      6.08280      4.22663      1.81284         0.544467     -0.652034      0.270322
68   2      4.17707      6.29715      2.05532        -0.200215     -0.014175     -0.843119
69   2      4.09104      4.10146      4.05839         0.278172     -0.036775      0.173140
70   2      6.15407      6.18722      3.99256         0.347417     -0.026357      0.878206
71   2      6.20678      4.16862      6.28490        -0.394717      0.349576     -0.496901
72   2      4.15649      6.24778      6.34200         0.022391     -0.010391     -0.280696
73   2      4.06459      3.98927      8.39875         0.410760      0.833824      0.147201
74   2      6.22255      6.32241      8.39242        -0.185156     -0.170630     -0.188826
75   2      6.09728      4.22886     10.39700         0.140039      0.213214      0.397952
76   2      4.05298      6.28217     10.57860         0.589193     -0.324412     -0.617170
77   2      4.07370      4.09385     12.70240         0.158970      0.203239     -0.412903
78   2      6.11010      6.37777     12.75180         0.144218     -0.346301     -0.485392
79   2      6.28192      4.27159     14.69980        -0.291373      0.037407      0.066665
80   2      3.98455      6.30357     14.73960         0.266128      0.079721     -0.088047
81   2      4.18823      8.35012     35.34579        -0.262908     -0.049234      0.470908
82   2      6.17937     10.29090     35.43454         0.317633      0.034436      0.421318
83   2      6.26583      8.19508      1.96134        -0.147741      0.788461     -0.061808
84   2      4.05897     10.47250      1.99245         0.569444     -0.395393     -0.668476
85   2      4.30306      8.43202      4.10203        -0.207501     -0.401778      0.067483
86   2      6.26343     10.47460      3.92825         0.200525     -0.278528      0.111327
87   2      6.44086      8.31863      6.27063        -0.570760     -0.173433     -0.642930
88   2      4.32563     10.37620      6.16016        -0.482689      0.374214     -0.489755
89   2      4.26988      8.45018      8.33201        -0.114700     -0.576723      0.117038
90   2      6.14146     10.49310      8.17194         0.702263      0.100976      1.198086
91   2      6.27322      8.26974     10.47590         0.195161      0.244859      0.333615
92   2      4.29214     10.41970     10.63600         0.202343      0.263230     -0.192130
93   2      4.01375      8.35654     12.59930         0.656242      0.158982      0.225810
94   2      6.33995     10.58640     12.64080        -0.041118     -0.456962     -0.158685
95   2      6.09202      8.17680     14.90120         0.195439      0.470967     -0.264861
96   2      4.43447     10.55730     14.72990        -0.273978     -0.340182     -0.069046
97   2      8.42813     12.35120     35.33841        -0.058811      0.067642      0.586388
98   2     10.42180      2.21751     35.43477         0.480624     -0.657131      0.271510
99   2     10.32730     12.42723      1.92732        -0.031073      0.521953      0.482252
100   2      8.35291      2.05501      1.87250        -0.300987     -0.022694     -0.084169
101   2      8.22516      0.10264      3.98497         0.329078     -0.347298     -0.317739
102   2     10.30170      2.10457      4.24661         0.262716      0.057427     -0.656787
103   2     10.05340      0.01392      6.22814         0.837959     -0.203367      0.135831
104   2      8.17731      2.12675      6.17627         0.393912      0.451436      0.067326
105   2      8.17835      0.04341      8.55357         0.492172     -0.104659     -0.532680
106   2     10.34680      1.99226      8.20136        -0.313262      0.207288      0.765186
107   2     10.38710      0.03011     10.31010        -0.064146     -0.100426      0.737115
108   2      8.18510      2.23606     10.67930         0.604735     -0.077391     -0.771095
109   2      8.37461      0.09454     12.64880         0.016518     -0.266174      0.008952
110   2     10.30180      2.08156     12.75490         0.114037      0.385190     -0.111105
111   2     10.46640      0.07023     14.75320        -0.055518     -0.220683     -0.175541
112   2      8.21613      2.19637     14.84710         0.511904      0.111102     -0.169492
113   2      8.47793      4.11045     35.56223        -1.022513     -0.079514     -0.045129
114   2     10.18390      6.20472     35.43632         0.859184      0.232153      0.486582
115   2     10.43930      3.96366      1.93781         0.587726      0.508018      0.195510
116   2      8.22001      6.10467      1.90779         0.492245      0.065040     -0.014946
117   2      8.31574      4.21866      4.00267        -0.531716     -0.602937      0.057425
118   2     10.40670      6.00569      4.13974         0.408431      0.592378     -0.694171
119   2     10.39220      4.20704      6.34340        -0.368232     -0.399002     -0.115678
120   2      8.30612      6.29451      6.05854         0.018178     -0.150762      0.271958
121   2      8.20642      4.22375      8.25995         0.460527     -0.126762      0.294104
122   2     10.47840      6.34633      8.17986        -0.286178     -0.176075      0.478389
123   2     10.45080      4.25713     10.28560        -0.436175     -0.296786      0.191096
124   2      8.31897      6.16638     10.35980         0.063415      0.422423      0.294614
125   2      8.30091      4.27494     12.57410        -0.028057     -0.012003      0.147684
126   2     10.41600      6.11372     12.59480         0.011419      0.324396     -0.094734
127   2     10.56360      4.27038     14.77760        -0.144856     -0.060534      0.008950
128   2      8.38628      6.22440     14.70210         0.041744      0.036430      0.128573
129   2      8.24443      8.19680     35.70976         0.024487      0.388544     -0.200099
130   2     10.60510     10.36300      0.06691        -0.636139     -0.146971     -0.528016
131   2     10.48340      8.24889      1.94552         0.006853     -0.601566     -0.173106
132   2      8.32596     10.40350      1.99196        -0.118405     -0.159788     -0.539614
133   2      8.56219      8.27094      3.92959        -0.865527     -0.403462      0.370849
134   2     10.26530     10.38370      4.18994         0.592343      0.490070     -0.044007
135   2     10.47190      8.38946      6.20793        -0.006077     -0.026650     -0.135837
136   2      8.20623     10.51190      6.25533         0.366006     -0.563180     -0.198847
137   2      8.39409      8.42375      8.28170         0.168542     -0.026949      0.431593
138   2     10.69220     10.38760      8.32976        -0.490366      0.130561      0.153346
139   2     10.50240      8.24301     10.34910        -0.542789      0.153312      0.192368
140   2      8.32259     10.41830     10.43930        -0.127144     -0.353212      0.025743
141   2      8.32236      8.22262     12.73050        -0.256264      0.273147     -0.443715
142   2     10.24410     10.33310     12.50080         0.230020      0.437383     -0.054816
143   2     10.25160      8.58349     14.84750        -0.280605     -0.685561     -0.071498
144   2      8.19764     10.51870     14.75180         0.027102     -0.025627     -0.070188
