ITEM: TIMESTEP
0
ITEM: NUMBER OF ATOMS
144
ITEM: BOX BOUNDS pp pp pp
0.0 12.4883307881 
0.0 12.4883307881
0.0 35.7286733738
ITEM: ATOMS id type x y z fx fy fz
1   2     12.44438     12.33685     35.31690        -0.192778      0.145626      0.485047
2   2      2.15091      1.95060     35.56110         0.080778      0.568808     -0.418619
3   2      2.04246      0.05380      1.74261         0.077613     -0.534137      0.707686
4   2      0.02827      2.09901      1.81128         0.118411      0.245279      0.150392
5   2      0.08017      0.14187      3.96511        -0.199998     -0.376494      0.072588
6   2      2.00083      2.27451      4.05036         0.317230     -0.904092     -0.578800
7   2      1.90938     12.20692      6.14218         0.104646      0.606351      0.035371
8   2      0.00897      1.89896      6.33670        -0.487309     -0.225396     -0.320597
9   2     12.47740     12.34000      8.55575        -0.754228      0.745846     -0.775990
10   2      2.01220      2.03091      8.27496         0.001096      0.175426      0.400400
11   2      1.91196      0.14307     10.50580         0.540169      0.089794      0.347057
12   2     12.43220      2.30530     10.59040        -0.166969     -0.273975      0.060022
13   2      0.24077      0.19466     12.79070        -0.963977      0.105703      0.094383
14   2      2.15279      2.20851     12.57320        -0.843281     -1.404442     -0.638188
15   2      2.15256     12.34692     14.83730         0.169324      0.280886      0.245588
16   2     12.11780      1.98566     15.10010         0.421144      0.014583     -0.403610
17   2      0.16073      4.15411     35.51310         0.166693      0.145480      0.343577
18   2      2.18242      6.48574     35.40490         0.364045     -0.436531      0.341688
19   2      2.43400      4.00982      1.92482        -0.208808      0.554084     -0.063651
20   2      0.26447      6.14836      1.91501         0.099647     -0.148117      0.197354
21   2     12.34230      4.06530      4.07038         0.448307      0.543370      0.444668
22   2      2.18636      6.09060      4.26280         0.246254     -0.264436     -0.516216
23   2      2.04139      3.90006      6.19367         0.388620      0.961873      0.068336
24   2      0.21427      6.12519      6.36039        -0.184811      0.197097     -0.505190
25   2      0.05053      4.06457      8.25585        -0.278142      0.431813      0.624951
26   2      2.19603      6.32465      8.63888        -1.205835     -0.514279     -0.677003
27   2      2.08264      4.18168     10.52190        -0.124016      0.222468     -0.122200
28   2     12.37612      6.20523     10.68190        -0.290177     -0.696405     -0.841660
29   2     12.43990      4.17015     12.88590        -1.191732     -0.017129     -0.822844
30   2      1.74894      6.30195     12.59750         1.066028      0.022679      0.705250
31   2      1.97942      4.04499     14.51500         0.652735      0.634776      1.551374
32   2     12.30445      6.31134     14.98320         0.002094      0.091913     -0.529781
33   2      0.04547      8.19302     35.44920         0.222437      0.532375     -0.077036
34   2      2.12277     10.50440     35.42130        -0.519773     -0.740680      0.164289
35   2      2.17104      8.40755      1.80161         0.063605     -0.212985      0.078546
36   2     12.43090     10.50780      1.92918         0.298613      0.072528     -0.233806
37   2      0.26658      8.10951      4.01326        -0.434795      0.191967      0.074008
38   2      2.19080     10.37300      3.90446        -0.711471     -0.323249      0.098414
39   2      2.14520      8.44596      6.41027        -0.024735     -0.261827     -0.522803
40   2     12.41929     10.22440      6.00701         0.429543     -0.064528     -0.395388
41   2     12.48709      8.33320      8.23599         0.879320     -0.608004      0.316316
42   2      1.99803     10.48680      8.47523         0.365716     -0.516301      0.074975
43   2      1.74910      8.37518     10.50800         0.164493      0.363595      0.254706
44   2     12.39649     10.53310     10.63980        -0.016455     -0.344876      0.033115
45   2     12.42892      8.45313     12.87400         0.083223     -0.311201     -0.031197
46   2      1.99342     10.48930     12.72830         0.205201     -0.149757     -0.567639
47   2      2.14301      8.50403     14.54410         0.454676     -0.439030      0.612843
48   2     12.41727     10.69400     14.99290        -0.260332     -0.231103     -0.456589
49   2      4.12064     12.28856     35.28660         0.363422      0.407668      0.221152
50   2      6.19327      1.66802     35.30920         0.188079      0.291689      0.486404
51   2      6.33720     12.28146      1.84311         0.027558      0.801909     -0.049604
52   2      4.33407      1.82999      1.85001        -0.338165      0.191053     -0.327661
53   2      4.09740     12.31029      4.02859        -0.083217      0.379703     -0.178617
54   2      6.21129      1.71772      3.96518         0.453344      0.168579     -0.075320
55   2      6.10929     12.44890      6.19639         0.459087      0.038427      0.429983
56   2      4.14234      1.95297      5.96762        -0.396056     -0.092023      0.644428
57   2      3.93144      0.14037      8.41490         0.571335     -0.652178     -0.476527
58   2      6.20958      2.04058      8.42599         0.208223      0.313931     -0.683782
59   2      6.11473      0.10207     10.34240         0.548669     -0.675819      0.416779
60   2      4.22900      2.18810     10.34350        -0.626897      0.156496      0.437540
61   2      4.06355     12.38979     12.51670         0.209792      0.638523      0.670396
62   2      6.26871      1.90632     12.58640        -0.143195      0.418989      0.247362
63   2      6.13732     12.43550     14.73860         0.271173      0.137267     -0.360297
64   2      4.01740      1.96373     14.64140         0.527836     -0.260506      0.274399
65   2      4.12971      4.38645     35.44480         0.080123     -0.090530      0.112934
66   2      6.45866      6.32304     35.35840        -0.095688     -0.069583      0.303890
67   2      6.18173      4.05474      1.70322         0.300674      0.161022     -0.391269
68   2      4.47404      6.41170      1.77743        -0.507889     -0.161171      0.343195
69   2      4.56377      3.96593      4.00456        -0.936531      0.550417     -0.222756
70   2      6.19762      6.25146      4.18402         0.197989      0.095594     -0.318093
71   2      6.18624      3.95320      6.27859        -0.042987      0.649408      0.231025
72   2      4.13858      6.37249      6.28395        -0.030998     -0.588521      0.082026
73   2      4.02614      4.24965      8.26370         0.312243     -0.429703     -0.223694
74   2      6.19103      6.26620      8.43620         0.212047      0.316107     -0.946575
75   2      6.19282      4.25077     10.52560         0.485169     -0.588612      0.499418
76   2      4.30078      6.17570     10.45040        -0.572528     -0.544277      0.381544
77   2      4.13820      3.92708     12.64290         1.293776      1.321399     -0.053235
78   2      6.07893      6.33070     12.73570         0.719270     -0.452512      0.036181
79   2      6.58180      4.23743     14.95820        -1.412220      0.865720     -0.179639
80   2      4.01277      6.20569     14.50980        -0.292572      0.044609      0.054933
81   2      4.44645      8.51704     35.49860        -0.224221     -0.207594      0.036802
82   2      6.40828     10.55280     35.43900        -0.008215     -0.209951     -0.343792
83   2      6.54604      8.31662      1.88830        -0.410416      0.295901      0.276639
84   2      4.19979     10.39380      1.85241         0.146797     -0.093609      0.073073
85   2      4.31598      8.47808      4.29818        -0.767712     -0.204134     -1.235606
86   2      6.37744     10.49730      3.97833         0.115934     -0.564953      0.115001
87   2      6.10208      8.39608      6.25573         1.178778     -0.043957      0.718742
88   2      4.11842     10.51800      6.36088        -0.138540     -0.294143      0.016207
89   2      4.03422      8.29104      8.62556         0.736504      1.090684     -0.246464
90   2      6.16651     10.38240      8.30740         0.032348     -0.075709      0.533066
91   2      6.41608      8.29408     10.55910        -0.325644      0.338086     -0.614548
92   2      4.09135     10.51200     10.59000        -0.279212     -0.478617     -0.964039
93   2      4.03455      8.18010     12.18370        -0.400498      0.749708      1.109824
94   2      6.18959     10.36780     12.41500         0.060465      0.430748      0.746066
95   2      6.10338      8.50746     14.62280         0.117723     -0.334101     -0.083698
96   2      4.26682     10.45840     15.15420        -0.406477     -0.019844     -0.499028
97   2      8.60710      0.18677     35.35910        -0.340682      0.127335      0.298757
98   2     10.46510      2.31240     35.62310        -0.067549      0.014425     -0.047496
99   2     10.36990      0.24127      1.98823         0.029258     -0.466304     -0.009366
100   2      8.27334      2.18600      1.89816         0.033904     -0.425546     -0.593499
101   2      8.40575     12.46960      4.28217         0.406001     -0.123165     -0.326813
102   2     10.36280      2.02245      4.26782        -0.032173     -0.226730     -0.152992
103   2     10.60410     12.23436      6.35251        -0.505179      0.556128     -0.153781
104   2      8.22301      2.04327      6.41330         0.337359     -0.366539     -0.125434
105   2      8.35870     12.36850      8.30074         0.158023      0.369836      0.295939
106   2     10.36970      2.14813      8.51650        -0.049700     -0.328760     -0.187228
107   2     10.37460      0.07703     10.55430        -0.028992      0.130106      0.074933
108   2      8.28474      2.25692     10.54160        -0.259418     -0.631587      0.170537
109   2      8.37385      0.03639     12.62190        -0.305368     -0.037599     -0.150819
110   2     10.41860      2.11116     12.80080        -0.126458      0.026436     -0.353745
111   2     10.16570      0.02107     14.73900         0.287060     -0.180079      0.219989
112   2      8.19544      2.23181     14.83430         0.777108     -1.251467     -0.364193
113   2      8.46129      4.32635     35.34340        -0.175225     -0.194901      0.551166
114   2     10.51500      6.20489     35.69470        -0.049266     -0.292041     -0.196472
115   2     10.42060      4.26172      2.17422        -0.173680     -0.474990     -0.946892
116   2      8.31920      6.15695      2.00624        -0.099915     -0.012551     -0.142016
117   2      8.09026      3.85927      4.05918         0.041122      0.653332      0.333989
118   2     10.17270      6.10071      4.18516         0.636395      0.328745      0.281647
119   2     10.31490      3.97382      6.28802         0.110553      0.586796      0.148198
120   2      8.23684      6.15153      6.18748        -0.165844      0.085029      0.396184
121   2      8.23260      4.31532      8.44601         0.369883     -0.451618     -0.499457
122   2     10.59570      6.29322      8.28481        -0.444927     -0.645836      0.089689
123   2     10.23340      4.16021     10.66360         0.602148      0.572810      0.076877
124   2      8.28619      6.27256     10.42650         0.485135     -0.099991      0.596160
125   2      8.30275      4.40245     12.81510        -0.021852     -0.276823     -0.618634
126   2     10.32390      6.43711     12.73750         0.354616     -0.607434      0.143144
127   2     10.37100      4.20025     14.85990        -0.174450      0.180532      0.072229
128   2      8.37158      6.37684     14.90830        -0.067472      0.263798     -0.170624
129   2      8.42255      8.38157     35.46060        -0.075876     -0.434627     -0.046413
130   2     10.24810     10.44930     35.45290         1.119752      0.146225     -0.332909
131   2     10.65400      8.33125      1.69808        -0.473488      0.000968      0.845868
132   2      8.42941     10.47220      1.70650         0.066294     -0.054654      0.983690
133   2      8.43960      8.34041      4.11421        -0.717787     -0.218724     -0.188466
134   2     10.39300     10.23150      3.86631         0.270735      0.524178      0.143074
135   2     10.35520      8.34319      6.17577         0.019847     -0.763165     -0.526412
136   2      8.28029     10.44660      6.28244        -0.005409     -0.486611     -0.240519
137   2      8.43207      8.27795      8.36329        -0.598553     -0.033910     -0.106711
138   2     10.53980     10.09580      8.32152        -0.819612      1.499053      0.614190
139   2     10.49060      8.19426     10.52160        -0.332668      0.648454     -0.098651
140   2      8.26777     10.56550     10.49480         0.336204     -0.285715     -0.239547
141   2      8.33420      8.36818     12.64120        -0.471597     -0.092331     -0.244291
142   2     10.49770     10.31270     12.61820        -0.632645      1.111894     -0.098299
143   2     10.21020      8.56460     14.76300         0.827815     -0.702124      0.624887
144   2      8.28354     10.40870     14.62290        -0.803938      0.672809      0.091628
