ITEM: TIMESTEP
0
ITEM: NUMBER OF ATOMS
144
ITEM: BOX BOUNDS pp pp pp
0.0 12.4883307881 
0.0 12.4883307881
0.0 35.7286733738
ITEM: ATOMS id type x y z fx fy fz
1   2     12.41636     12.25620     35.68810        -0.359723     -0.066369     -0.260475
2   2      1.82387      1.96177     35.43900         0.373648      0.046743      0.071576
3   2      2.07721      0.01576      1.88854        -0.179670     -0.279063      0.348403
4   2     12.38784      1.97444      1.75263         0.191232      0.231566      0.845831
5   2      0.00007      0.10740      4.24125         0.078349      0.427964     -0.104259
6   2      2.11697      2.08308      4.27295         0.186302     -0.470167     -0.946487
7   2      2.16253      0.00879      6.30780        -0.418937      0.651455      0.273292
8   2      0.05737      2.24054      6.26735        -0.514148     -0.416190      0.039410
9   2     12.39328      0.24685      8.27154        -0.090529     -0.130727      0.350215
10   2      2.07759      2.11592      8.39226         0.628253      0.288522     -0.588758
11   2      2.08821     12.42072     10.18350        -0.378511      0.163611      1.025920
12   2      0.25215      2.16762     10.53900        -0.359890     -0.355040      0.230844
13   2      0.17460      0.06159     12.70750         0.108506     -0.233105     -1.241578
14   2      2.24463      2.27483     12.71380        -0.158637      0.050192     -0.137938
15   2      2.33905      0.17517     14.57200        -0.016454     -0.217232      0.527716
16   2      0.02657      1.83511     14.78310         0.402543      0.984692      0.136022
17   2     12.33790      3.94884     35.51880        -0.110419      0.704768     -0.129990
18   2      2.19317      6.00013     35.24120        -0.371039      0.418507      0.511533
19   2      1.85484      4.19444      1.91919        -0.117450     -0.484511     -0.026754
20   2     12.27023      6.17839      2.12704        -0.123831     -0.196850     -0.408914
21   2      0.03077      4.05437      4.01551        -0.467653      0.040469      0.106785
22   2      1.99738      6.27727      4.13997         0.012519     -0.546207      0.336692
23   2      2.10567      4.15041      6.10549         0.613940      0.563295      0.748008
24   2      0.08620      6.28500      6.24645        -0.356056     -0.228327     -0.292764
25   2      0.00540      4.30558      8.32041         0.193395     -0.458214      0.088550
26   2      2.10631      6.27680      8.40055         0.641873     -0.559894     -0.371371
27   2      2.29370      4.09574     10.34720         0.335493      0.394696      0.428282
28   2      0.24757      6.26050     10.49570        -0.679452     -0.712367     -0.118146
29   2     12.41910      4.15607     12.83420         1.210723      0.292125     -0.199579
30   2      1.98545      6.37940     12.68490         0.669329     -0.763524      0.617305
31   2      1.96031      4.39831     14.84300         0.017432      0.105010     -0.283510
32   2     12.47750      6.83314     15.23770        -0.093153     -0.079908     -0.761278
33   2      0.03487      7.90504     35.58930         0.393416      0.337225     -0.251444
34   2      2.02314     10.36100     35.55030         0.300042     -0.343638      0.339367
35   2      1.89584      8.06605      1.93442         1.018007      0.304529     -0.792046
36   2     12.44447     10.13060      1.80101         0.679089      1.180999     -0.214246
37   2      0.19669      8.46502      4.02660        -0.377675     -0.368158      0.874205
38   2      1.95922     10.68710      4.11940         0.308748     -0.671144     -0.456097
39   2      2.01173      8.34218      6.42356         1.197272     -0.154908     -1.383247
40   2      0.19237     10.52460      6.49253        -0.536204      0.205190     -0.510403
41   2      0.07507      8.36311      8.21288        -0.783779     -0.059973      1.045887
42   2      2.30952     10.33170      8.44931        -0.323551     -0.224143     -0.072144
43   2      2.06661      8.29300     10.42880         0.591140      0.774073     -0.135451
44   2     12.38430     10.38110     10.47290         1.182706      0.774165      0.548052
45   2      0.06463      8.24458     12.45710        -1.089547      0.491055      0.838095
46   2      2.07377     10.19060     12.56910        -0.276995      1.475715     -0.801346
47   2      1.96623      8.78685     14.86620         0.735517     -1.319039      0.681141
48   2     12.47480     10.48480     14.56960        -0.791268      0.368129      0.162007
49   2      3.89334      0.04436     35.37871         0.297813     -0.173578      0.155416
50   2      6.26431      1.96558     35.47330        -0.089875      0.493777     -0.086955
51   2      6.28634     12.35617      1.48571         0.089402      0.201491      1.019512
52   2      4.25766      1.73903      1.98049        -0.290760      0.609475     -0.090072
53   2      4.21417     12.42070      4.19003        -0.231182      0.035126     -0.856456
54   2      6.29198      1.93291      3.96845         0.265676     -0.015793      0.007399
55   2      6.27588     12.44891      6.03472         0.806109     -0.560715      0.465623
56   2      4.33203      1.94448      6.25503        -0.536262      0.723034      0.104827
57   2      4.20114     12.48440      8.30510         0.554321      0.380839      0.123561
58   2      6.46492      2.08550      8.16283        -0.686600     -0.055185      0.655024
59   2      6.26156      0.02287     10.50850        -0.122654     -0.809104     -0.015837
60   2      4.52046      2.17603     10.57070        -0.913153     -0.025658     -0.356688
61   2      3.97020     12.36850     12.39130         0.349529      0.309996      0.001726
62   2      6.13177      1.98887     12.82390         0.110514      0.822277     -0.118805
63   2      6.09229      0.12847     14.75110         0.189080     -0.744440      0.443977
64   2      4.32366      2.25243     15.05460        -1.297977     -0.720033     -0.354422
65   2      3.89216      3.94560      0.02963         0.518561     -0.472032     -0.313613
66   2      5.85433      6.27026     35.48290         0.525675     -0.423380      0.439959
67   2      6.01397      4.09182      1.89779         0.514765     -0.367483     -0.630020
68   2      3.94342      6.01001      2.09090         0.131937      0.681446     -0.655663
69   2      4.20251      3.98666      4.06230        -0.651353     -0.311086      0.170937
70   2      6.09928      6.07742      3.97359         0.471507      0.964902     -0.060661
71   2      6.15591      4.18704      6.13397         0.653389     -0.012311      0.190255
72   2      4.35580      6.34239      6.04928        -0.930438     -0.161599      0.573649
73   2      4.39319      4.33949      8.32370        -1.026863     -0.540964     -0.254547
74   2      6.35694      6.25735      8.32242         0.721854      0.362323     -0.304788
75   2      6.15736      4.37615     10.46840         0.729423      0.159203      0.630607
76   2      4.21635      6.53238     10.58740         0.117997     -0.508445      0.085627
77   2      4.08949      4.37536     12.74040        -0.082102     -0.143790     -0.003361
78   2      6.15460      6.22584     12.74220         0.528713      0.322655      0.060642
79   2      6.04849      4.15560     14.96170         1.065239      1.072844     -0.478387
80   2      4.02265      6.46703     15.02800        -0.079778     -0.103895     -0.558985
81   2      4.14635      8.34312     35.72650        -0.599655      0.322445      0.020224
82   2      6.10888     10.47870     35.34510        -0.145174     -0.709645     -0.300944
83   2      6.26190      8.30590      1.96616        -0.463752     -0.918397     -0.646449
84   2      4.20425     10.31910      2.10144        -0.946055      0.399575     -0.824984
85   2      3.95769      8.24254      3.97127         0.247701      0.460225      0.346982
86   2      6.24119     10.28890      3.85985         0.023663      0.640731      1.361544
87   2      6.21963      8.47329      6.14119         0.287992      0.079979      0.023395
88   2      4.00668     10.42960      6.15875         0.808152     -0.719047     -0.024388
89   2      4.29691      8.19650      8.24697        -0.086102      0.422308      0.135960
90   2      6.34044     10.49490      8.27591         0.089983     -0.168689     -0.273474
91   2      6.40902      8.40158     10.29550         0.094977     -0.245286      0.489147
92   2      4.37025     10.46270     10.38580        -0.266698     -0.668111      0.171872
93   2      4.07437      8.40619     12.76850         0.285637     -1.047715      0.045969
94   2      6.06676     10.22700     12.74440         1.058730      0.501694     -0.378408
95   2      6.30796      8.20476     14.87320        -0.032179      0.044943     -0.265721
96   2      4.22319     10.48640     14.80070        -0.136544      0.112836      0.109584
97   2      8.31406     12.32754     35.07310        -0.238367     -0.072473      0.476893
98   2     10.15250      1.79713      0.00903         0.442046      0.051132     -0.570339
99   2     10.53420     12.36420      2.18204        -0.276710     -0.433825     -0.641286
100   2      8.23597      2.03071      1.88427        -0.319270     -0.114886      0.417344
101   2      8.34351     12.26320      3.89512        -0.096559      0.369086      0.376071
102   2     10.38790      2.06891      3.97787        -0.334342      0.244570      0.487433
103   2     10.38870     12.43050      6.22271         0.065587      0.769397      0.076439
104   2      8.28675      2.24034      6.13536         0.699254     -0.248444     -0.490766
105   2      8.37027     12.48550      8.39863        -0.224380      0.049728     -0.350671
106   2     10.20720      2.08801      8.74455         0.369612      0.428678     -0.534032
107   2     10.36810      0.00502     10.52980         0.223088      0.101429      0.790188
108   2      7.96114      2.05826     10.67650         0.849898      0.868361     -0.080307
109   2      8.29419      0.05578     12.80400        -0.317623     -0.071718     -1.022015
110   2     10.42640      2.20229     12.31030        -0.265236     -0.695384      0.498327
111   2     10.46830      0.07790     14.52760        -0.051976     -0.290153      0.420739
112   2      8.46906      2.01662     14.78630        -0.441682      0.311663      0.018742
113   2      8.32282      4.30299      0.03843        -0.551121     -0.355258     -0.954601
114   2     10.43190      6.30746     35.09999        -0.214817     -0.730449      0.587289
115   2     10.31120      4.13976      1.84824         0.433806      0.103916      0.551773
116   2      8.14852      6.20348      1.92965         0.406017      0.716749      0.218997
117   2      8.12103      4.21785      3.92714         0.817963     -0.436933      0.412475
118   2     10.44380      6.22210      4.22294        -0.044320      0.061210     -0.623631
119   2     10.48010      4.15817      6.22150        -0.314708     -0.164270      0.001052
120   2      8.55443      6.38305      6.16942        -0.877670     -0.450662      0.192752
121   2      8.39075      4.15506      8.41163        -0.048313      0.334795     -0.061816
122   2     10.43310      6.26767      8.33696         0.249954     -0.372368     -0.094377
123   2     10.73220      4.26562     10.57390        -0.554590      0.184478     -0.705770
124   2      8.47445      6.22727     10.48070        -0.303190      0.139577      0.313149
125   2      8.32920      4.15168     12.82360        -0.373924      0.037617     -0.448837
126   2     10.49120      6.25615     12.53660        -0.267500      0.392399      0.504112
127   2     10.52920      3.92971     14.70360        -0.501860      0.234320      0.479833
128   2      8.42401      6.12856     14.75690        -0.045807      0.270106     -0.162446
129   2      8.26472      7.99968     35.38510        -0.343040      0.167869      0.436008
130   2     10.08590     10.18150     35.55810         0.263914      0.350981     -0.099573
131   2     10.46910      8.40660      1.93978        -1.310690     -1.107173      0.323863
132   2      8.14527     10.27640      1.84110         0.933812      0.156156     -0.404502
133   2      8.23848      8.30143      4.08967         0.495620     -0.200020     -0.185461
134   2     10.67370     10.36890      4.19962        -0.458109      0.504963     -0.622972
135   2     10.56210      8.49810      6.10795         0.127922     -0.647611      0.497291
136   2      8.50800     10.43430      6.22948        -0.793538     -0.116343     -0.113726
137   2      8.54031      8.32069      8.22926        -0.592232      0.317676      0.223781
138   2     10.44690     10.53740      8.57455        -0.177112     -0.092787     -1.269336
139   2     10.63530      8.32198     10.25130        -0.871450     -0.620673      0.924485
140   2      8.34289     10.39990     10.53840        -0.202488     -0.075613      0.360537
141   2      8.45920      8.44851     12.92520        -0.577518     -0.694720     -0.492038
142   2     10.33230     10.40950     12.62580         0.473679      0.144767     -0.253251
143   2     10.25060      8.68971     15.05920         0.406395     -0.376181     -0.206935
144   2      8.24674     10.68010     14.80400        -0.286507     -0.377418      0.132410
