ITEM: TIMESTEP
0
ITEM: NUMBER OF ATOMS
180
ITEM: BOX BOUNDS pp pp pp
0.0 15.336255 
0.0 14.75731
0.0 29.7984842388
ITEM: ATOMS id type x y z fx fy fz
1   2     15.26440     14.57291     29.48305         0.065343      0.031637     -0.167792
2   2      2.59350      1.46029     29.61450         0.150548     -0.328540     -0.131692
3   2      1.56625     14.72434      2.02485         0.211720     -0.006617      0.479348
4   2      4.31819      1.44942      2.24020        -0.653050     -0.098973      0.597779
5   2      0.70671      1.33022      4.59507         0.568811      0.168322      0.247491
6   2      3.26001     14.71920      4.46715        -0.173588     -0.251859      0.253467
7   2     15.11940     14.56774      7.09396         0.487847     -0.122482     -0.299575
8   2      2.55048      1.29072      6.94369        -0.641956     -0.131637      0.011664
9   2      1.63011      0.03395      9.29938         0.392573     -0.168989      0.071496
10   2      4.09765      1.70683      9.67797        -0.029057     -0.357866      0.113619
11   2      1.27219      1.44968     11.80040        -0.600966      0.681489      0.161833
12   2      3.51988     14.66820     11.90070         0.440516      0.675311     -0.059333
13   2      0.08604      2.73894     29.69840        -0.266709      0.114494     -0.797728
14   2      2.67047      4.29479     29.60670         0.426349      0.141517      0.195736
15   2      1.74752      2.88048      2.22452         0.663232      0.140446      0.528443
16   2      4.45885      4.58956      2.46012        -0.980929      0.077606     -0.251222
17   2      0.90979      4.45941      4.65567        -0.760111     -0.539304      0.492660
18   2      3.24243      3.05498      4.86857         0.634760     -0.691279     -0.411076
19   2     15.20921      2.79621      7.11028         0.546782      0.315319      0.051192
20   2      2.42204      4.45305      7.35519         0.529787      0.012670     -1.078516
21   2      1.54801      2.90782      9.27111        -0.258812     -0.369230      1.406182
22   2      4.29005      4.63163      9.48677        -0.145191     -0.199734      0.269692
23   2      0.98710      4.59895     12.35710         0.294081     -0.344479     -0.184577
24   2      3.52340      3.29530     12.03330        -0.094312     -0.071015     -0.064168
25   2      0.23125      5.54894     29.42330        -0.187641      0.664909      0.201756
26   2      2.79396      7.17668     29.47660        -0.318095      0.090661     -0.011578
27   2      1.73167      5.86229      2.33169         0.937645      0.443235     -0.387868
28   2      4.19481      7.37168      2.06772         0.377141      0.373340      0.491458
29   2      0.93496      7.30221      4.87111        -0.351939      0.636741      0.164229
30   2      3.31913      5.84080      4.90029         0.301501      0.834863      0.067671
31   2     15.29093      5.88014      7.18575        -0.503774     -0.360382      0.582348
32   2      2.34819      7.19077      7.46471         0.805804      0.470991     -0.673684
33   2      1.59370      5.83632      9.88619        -0.007720      0.013427      0.036926
34   2      4.15996      7.52281      9.55238         0.331280     -0.361482      0.384394
35   2      0.78762      7.32618     12.36660         0.426022      0.304614     -0.359811
36   2      3.72650      6.11514     12.17210        -0.461813      0.135272     -0.184030
37   2      0.29465      8.60178     29.75320        -0.290199      0.063145     -0.919555
38   2      2.52362     10.41010     29.47620         0.496921     -1.280710      0.138167
39   2      1.66350      8.90342      2.19905         0.488388      0.089862      0.378800
40   2      4.30448     10.34720      2.35996        -0.146342      0.037550     -1.349797
41   2      0.84604     10.33110      4.65830        -0.200336     -0.477334      0.141578
42   2      3.29223      8.75391      4.41994         0.520644     -0.429819      0.921410
43   2     15.29280      8.75782      7.41171        -1.036537     -0.265787     -0.828895
44   2      2.33916     10.07700      7.11608         0.903311      0.022158     -0.480320
45   2      1.59032      8.89275      9.60551         0.123449     -0.467133      1.006475
46   2      3.94968     10.24990      9.55307         0.925944      0.358564     -0.106265
47   2      0.91412     10.37370     12.04680         0.375653      0.280823      0.259343
48   2      3.36563      8.99791     12.11710         0.271895     -0.153934     -0.112977
49   2     15.27160     11.54600     29.36080        -0.004170      0.235582      0.330202
50   2      2.45222     13.03550     29.58802         0.208332      1.203462     -0.284723
51   2      1.61963     11.83260      2.23158         0.084059     -0.175749     -0.027982
52   2      4.17521     13.26440      2.17480         0.104629     -0.015948      0.062013
53   2      0.65367     13.20720      4.55214         0.497295      0.191206      0.158359
54   2      3.39833     11.61210      4.57939        -0.437234      0.986116      0.654921
55   2     15.23166     11.61720      6.95975        -0.068559      0.512603      0.664390
56   2      2.57568     12.85590      7.08492        -0.467157      0.792386     -0.228057
57   2      1.64555     11.91240      9.64834        -0.141262      0.020457     -0.193904
58   2      4.32155     13.03910      9.49034        -0.710790      0.518394     -0.136921
59   2      1.04716     13.39220     12.07250        -0.531081     -0.355487     -0.112558
60   2      3.62322     11.94330     12.02700        -0.332846     -0.987978      0.182289
61   2      4.99287     14.66880     29.53390         0.267081     -0.071760      0.176278
62   2      7.59661      1.72734     29.61802         0.276265     -0.306440     -0.069705
63   2      6.73244      0.07959      2.24690        -0.829848     -0.435956     -0.046110
64   2      8.98411      1.44242      2.25028         1.326279      0.319490      0.356507
65   2      5.77652      1.34050      4.74925         0.039660      0.403432      0.188279
66   2      8.45395     14.64712      4.84536        -0.372322      1.592785     -0.382398
67   2      4.93752     14.63140      7.14783         0.209387     -0.056514      0.319964
68   2      7.52558      1.38009      7.05769        -0.147020      0.077894      0.383550
69   2      6.44955      0.00539      9.72363         0.581482      0.611320     -0.451579
70   2      9.28299      1.24594      9.51403        -0.249768      0.404273      0.188202
71   2      5.86734      1.70336     12.28720         0.088222     -0.236604     -0.319686
72   2      8.39485      0.17829     12.06070         0.043531      0.215313      0.143165
73   2      5.19622      2.93561      0.18714        -0.024943      0.596579     -0.742886
74   2      7.86072      4.73016     29.62090         0.162148     -0.887911     -0.267103
75   2      6.70596      3.15056      2.76507         0.127681     -0.382974     -0.741403
76   2      9.44282      4.28350      2.33317         0.294493      0.516920      0.514480
77   2      5.82033      4.76131      4.91905         0.497869     -1.035073      0.412548
78   2      8.50535      3.01659      4.74646         0.371137     -1.095597      0.773111
79   2      4.95590      2.77795      7.23661         0.469218      0.538104     -0.184220
80   2      7.56950      4.33689      7.28137        -0.697136     -0.150385     -0.511158
81   2      6.73177      2.96740      9.83453        -0.363719     -0.281715     -0.842382
82   2      9.23104      4.31435      9.45659        -0.123601      0.089838      0.763922
83   2      6.17769      4.69957     12.17370        -0.713725     -0.051993      0.174985
84   2      8.43615      3.09848     12.00020         0.009811     -0.787853      0.482014
85   2      5.38751      5.90818     29.72040        -0.710918     -0.105185     -0.219590
86   2      7.68074      7.56960     29.71990         0.555808      0.325054     -0.237541
87   2      7.17604      6.02373      2.17684        -0.604701      0.015493      0.909351
88   2      9.53154      7.47351      2.48290         0.398733      0.192149      0.037280
89   2      6.11319      7.41963      4.50175        -0.173284      0.441021      0.094840
90   2      8.59462      5.71855      4.75330        -0.210007      0.835916      0.002243
91   2      5.25762      6.14771      7.27060        -0.667740     -0.295086     -0.207910
92   2      7.71195      7.39850      7.19097         0.200227     -0.156398     -0.317634
93   2      6.78816      5.95566      9.69224         0.144136      0.146410      0.002934
94   2      9.35355      7.23815      9.66146        -0.252693      0.231909      0.444254
95   2      6.11925      7.70973     12.11920        -0.040900     -0.060834     -0.015338
96   2      8.61506      5.99299     12.30270         0.006472      0.547522     -0.215264
97   2      5.18469      8.87109     29.38170        -0.539879     -0.006018      0.340532
98   2      7.56889     10.34590     29.45050         0.687591     -0.410368      0.171590
99   2      6.78199      9.10062      2.35487         0.318498     -0.353283     -0.449334
100   2      9.33591     10.35380      2.45982         0.384035      0.286888     -0.265505
101   2      5.95806     10.50450      4.66019         0.385085     -0.337702     -0.163791
102   2      8.49856      9.10809      4.85036         0.353959     -0.628190     -0.066244
103   2      5.18057      8.91560      6.83465        -0.747249     -0.605432      0.221988
104   2      7.62810     10.23910      7.25499         0.139229      0.575955      0.214855
105   2      6.73637      8.83317      9.57172         0.012161      0.096190      0.173319
106   2      9.37095     10.26680      9.88941        -0.251344      0.546563     -0.000703
107   2      6.35505     10.57780     12.26850        -1.336885     -1.129343      0.029062
108   2      8.84887      8.81499     12.20380        -0.068496      0.045198      0.151907
109   2      5.16842     11.74090     29.32698        -0.501316      0.262779      0.284851
110   2      7.77493     13.04820     29.45890        -0.033584      0.922020     -0.046200
111   2      6.76411     12.03260      2.06028        -0.577176     -0.760421      0.482342
112   2      9.13149     13.31240      2.40020         0.609011      0.008141     -0.778201
113   2      5.89690     13.29100      4.87650        -0.361365      0.110697     -0.540178
114   2      8.39532     12.01170      4.88674         0.150224     -1.442111      0.116217
115   2      5.09468     11.64090      7.10719        -0.167154      0.214631      0.246275
116   2      7.55545     13.13100      7.52833        -0.126051      0.711345     -0.296430
117   2      6.70067     11.66750      9.72935         0.375500     -0.243476     -0.026027
118   2      9.18622     13.28670      9.95889         0.214430     -0.544452     -0.542045
119   2      6.00187     13.41100     12.11170         0.289670     -0.051790      0.401109
120   2      8.56409     11.90090     12.35110         1.363957      0.546164     -0.107257
121   2     10.16590     14.70799     29.71150        -0.099589      0.196128      0.197740
122   2     12.75870      1.23383     29.74136        -0.014318      0.208056     -0.252208
123   2     12.01370     14.72127      2.35655        -0.414456      0.251928     -0.902055
124   2     14.51390      1.66010      2.24298        -0.353159     -0.624465      0.389183
125   2     11.19440      1.38773      4.50337        -0.892223      0.660534      0.628101
126   2     13.54540     14.71621      4.69318         0.262794      0.053302      0.265871
127   2     10.14140     14.74229      7.01561         0.233843      0.141682      0.371310
128   2     12.74910      1.45742      7.22086        -0.856141     -0.309127     -0.268064
129   2     11.89760     14.74580      9.71979        -0.382328      0.313263     -0.822875
130   2     14.30090      1.46394      9.53475         0.684527      0.799154     -0.011139
131   2     11.67690      1.75590     12.27070        -0.845353     -0.089954     -0.076400
132   2     13.80440      0.16039     11.89400         0.756214     -0.719247      0.864554
133   2     10.21730      3.00261      0.06552         0.170925     -0.333791     -0.807588
134   2     12.98230      4.42059     29.52470        -0.261736     -0.001345      0.565155
135   2     12.03200      2.94605      2.17068         0.037197      0.260941      0.485563
136   2     14.73000      4.52935      2.28187        -1.008087     -0.359522     -0.086548
137   2     11.15090      4.19572      4.97113        -0.071882      0.255526     -0.581103
138   2     13.72060      2.92203      4.86445        -0.444502      0.199122     -0.866540
139   2     10.08270      2.81156      7.30558         0.290926     -0.268170     -0.758290
140   2     12.67120      4.34502      7.30670        -0.103788      0.376156     -0.075520
141   2     11.79380      2.93763      9.68798         0.315895     -0.362454     -0.534856
142   2     14.28870      4.54239      9.51867         0.753583     -0.443699     -0.057152
143   2     10.78330      4.37353     11.76350         0.393741      0.099286      1.474884
144   2     14.12630      2.97902     12.50140         0.330284     -0.786049     -0.263781
145   2     10.34510      6.02424      0.06752         0.511024      0.143914      0.240109
146   2     13.14010      7.44499      0.24342        -0.651026     -1.436402     -0.418941
147   2     12.20860      5.81635      2.55126        -0.566208      0.088093     -0.144094
148   2     14.64330      7.39257      2.55696        -0.053653      0.177236      0.214968
149   2     10.97810      7.19409      4.96189        -0.017392      0.361868     -0.100653
150   2     13.68870      5.88696      4.99802        -0.443819     -0.532851     -0.415841
151   2     10.08460      5.77200      7.27211         0.517830      0.404413     -0.226580
152   2     12.60420      7.42422      7.44292         0.034564     -0.637749      0.180871
153   2     11.82680      5.96053      9.89110         0.093299      0.517295     -1.562508
154   2     14.41900      7.50023      9.93036        -0.102574     -0.447255     -0.088558
155   2     11.46210      7.43688     12.29560        -0.448460      0.218677      0.241461
156   2     13.51450      5.50911     11.96170         0.473613      0.779954      0.953417
157   2     10.26180      8.97417     29.71300        -0.041777     -0.006385      0.317700
158   2     12.95200     10.02050     29.52210        -0.349202      1.045056      0.154343
159   2     12.13240      8.97739      2.46442        -0.826360     -0.088489     -0.039338
160   2     14.47190     10.45310      2.47040        -0.076362     -0.144697     -0.272752
161   2     11.06020     10.42200      4.93523        -0.137841     -0.353059     -0.045012
162   2     13.44190      8.62831      4.91875         0.429462      0.737487      0.118091
163   2     10.09650      8.94334      7.54980         0.572331     -0.035269     -0.750722
164   2     12.76030     10.17790      7.24979        -0.246978      0.739729      0.312550
165   2     11.88900      8.92313      9.95466         0.191381      0.049493     -0.370889
166   2     14.54880     10.33460      9.71837        -0.746383      0.682892     -0.172131
167   2     11.33080     10.53180     12.37160        -0.380321     -0.255873     -0.168795
168   2     13.90300      8.97300     12.44560        -0.641584      0.009090     -0.171477
169   2     10.33620     11.87450     29.43930        -0.847379     -0.830455      0.266699
170   2     12.70090     12.98930     29.60059         0.885219      0.554875     -0.516499
171   2     11.87520     11.93360      2.25544        -0.337037     -0.989452      0.130998
172   2     14.38320     13.29030      2.02595         0.524553     -0.134233      0.523855
173   2     10.90080     13.24690      4.52502         0.565039      0.100079      0.940771
174   2     13.46870     11.93480      4.79691        -0.181159     -0.508606     -0.054695
175   2     10.05430     11.94280      7.36812         0.359291     -0.599307      0.136107
176   2     12.54450     13.26660      7.34347         0.355986     -0.330832     -0.274365
177   2     11.90370     11.79060      9.78308         0.146361     -0.078901     -0.379201
178   2     14.51650     13.38650      9.61421        -0.161873     -0.876131     -0.049795
179   2     11.23300     13.49780     11.98690        -0.349614     -0.378366      0.876898
180   2     13.77720     11.86570     12.20640         0.214432      0.394354     -0.275092
