ITEM: TIMESTEP
0
ITEM: NUMBER OF ATOMS
180
ITEM: BOX BOUNDS pp pp pp
0.0 15.336255 
0.0 14.75731
0.0 29.7984842388
ITEM: ATOMS id type x y z fx fy fz
1   2     15.33540      0.04345     29.70450         0.108263     -0.251055     -0.172242
2   2      2.44381      1.41194     29.47450         0.193630     -0.170476      0.201060
3   2      1.70026      0.18914      2.39727        -0.334960     -0.333975     -0.374922
4   2      4.01994      1.75971      2.23226         1.098009     -0.898959     -0.200988
5   2      0.85878      1.59716      4.73988         0.140187     -0.258973     -0.106282
6   2      3.56505      0.00339      4.49404        -0.048409      0.032095      0.389795
7   2      0.08014      0.15029      7.20170         0.458626     -0.251940     -0.256549
8   2      2.69630      1.45963      7.05757        -0.289842      0.168752      0.115426
9   2      1.77689      0.10790      9.66734         0.267831     -0.607328     -0.947725
10   2      4.24815      1.37085      9.63278        -0.073569     -0.127910     -0.273812
11   2      0.86377      1.19999     11.97530        -0.413604      0.991951      0.493572
12   2      3.36492     14.74471     12.10700         0.450263     -0.287755      0.087583
13   2     15.01309      2.90627     29.67190         0.514118      0.201585     -0.035248
14   2      2.50476      4.16717     29.66030         0.216211      0.685192     -0.198101
15   2      1.61505      3.03475      2.21044        -0.553394      0.108414      0.344052
16   2      4.30194      4.44696      2.34122         0.493935      0.416462     -0.349566
17   2      0.69729      4.64663      4.76810         0.415156      0.195669     -0.059102
18   2      3.19008      3.10009      4.65454         0.346853      0.145810      0.326156
19   2      0.10288      2.96339      7.18990         0.411946      0.553281     -0.506490
20   2      2.69420      4.67635      7.32716        -0.335198     -0.366533     -0.443172
21   2      1.73265      3.00493      9.54954         0.101280      0.141133     -0.081796
22   2      4.41334      4.27226      9.60310        -0.355768      0.193611     -0.213820
23   2      0.54893      4.35732     11.85830         0.579446      0.137347      0.177093
24   2      3.15770      3.05221     12.04480        -0.134767     -0.352234     -0.000130
25   2     15.23588      5.85418     29.69545         0.159948      0.209499      0.211957
26   2      2.72784      7.15373     29.73010         0.114873     -0.168848     -0.338770
27   2      1.95182      6.02894      2.34112        -1.266609     -0.608676      0.275859
28   2      4.33116      7.29281      2.40174         0.921355      0.669961     -0.225104
29   2      0.93112      7.63218      4.79633        -0.247543     -0.601545     -0.176684
30   2      3.59189      5.96263      4.80086        -0.567433     -0.717188      0.223661
31   2      0.08470      6.04459      7.15163         0.147381      0.234790     -0.458231
32   2      2.65878      7.51501      7.14747        -0.383330     -0.554082      0.890096
33   2      1.65314      6.00900      9.60531         0.327304     -0.908061      0.092194
34   2      4.43023      7.14225      9.92282        -0.689554      0.338711     -0.631859
35   2      0.74835      7.14759     12.12440        -0.115797      0.399566      0.148560
36   2      3.35845      5.89209     12.23390        -0.422648      0.002734     -0.060617
37   2     15.05935      8.99797     29.62200         0.709867     -0.364283     -0.040520
38   2      2.59785     10.01230     29.68730        -0.253553      0.530557     -0.283652
39   2      1.83085      8.89278      2.26018        -0.280974      0.165497      0.580779
40   2      4.28098     10.40240      2.36179        -0.143680     -0.530925      0.248850
41   2      0.74407     10.41380      4.91581         0.574289      0.461224     -0.135835
42   2      3.48882      8.79029      4.92018        -0.374014      0.854895     -0.737024
43   2     15.21330      8.94380      7.30129         0.415015      0.414514      0.355935
44   2      2.46139     10.27620      7.40445        -0.134929      0.574453     -0.233795
45   2      1.66371      8.63698      9.84516         0.090541      1.180673     -0.213020
46   2      4.13521     10.08590      9.68995         0.058233      0.352421      0.381469
47   2      0.75005     10.09210     12.20490         0.049667      0.131260     -0.178727
48   2      3.48833      8.94220     12.34000        -0.342842     -0.445922     -0.216562
49   2      0.08184     11.80930     29.51350        -0.213536      0.040290      0.151557
50   2      2.44518     13.19930     29.67900        -0.183252     -0.081156     -0.148122
51   2      1.61694     11.97090      2.39524         0.724687     -0.583023     -0.112803
52   2      4.28714     13.27340      2.06399        -0.106556      0.064241      1.100588
53   2      0.97586     13.32680      4.76326        -0.121716      0.031029      0.345503
54   2      3.59407     11.83930      4.73339        -0.714440      0.041944     -0.126030
55   2      0.10032     12.10140      7.32820         0.328426     -0.949031     -0.352790
56   2      2.63291     13.41940      7.07688         0.186801     -0.291885      0.164641
57   2      1.68306     11.80960      9.79208         0.854417     -0.436770     -0.415043
58   2      4.30265     13.15000      9.43333        -0.859931      0.394615      0.367432
59   2      1.05910     13.13640     12.10270        -0.286767     -0.278023      0.439623
60   2      3.63229     11.73850     12.18420        -0.621844      0.230578     -0.228290
61   2      4.85153     14.48730     29.49730         0.531895      0.678001     -0.546566
62   2      7.37842      1.28006     29.14900         0.901215     -0.512475      0.167353
63   2      6.67367      0.21219      1.84795        -0.024197     -0.120299      0.643325
64   2      9.28179      1.59182      2.48791         0.560896      0.040681     -1.037512
65   2      6.08121      1.30209      4.54632         0.119841      0.464704     -0.201861
66   2      8.87871      0.07689      4.66811        -0.688292     -0.303387      0.692554
67   2      5.31143      0.19238      7.04625        -0.679426     -0.342434     -0.117578
68   2      7.85647      1.39855      6.87646         0.068616      0.581450      0.489183
69   2      6.80696     14.50137      9.41484        -0.484505      0.516585      1.139378
70   2      9.09155      1.31321      9.58634         0.931423      0.197633     -0.078589
71   2      5.73166      1.45068     12.19580        -0.063255     -0.103493     -0.057397
72   2      8.14457      0.04707     12.13220         0.835414     -0.098660     -0.119279
73   2      5.18724      2.75584     29.46990        -0.863214      0.207904      0.247905
74   2      7.80473      4.05614     29.48110         0.201875      0.330572      0.232005
75   2      6.95687      2.98250      2.38018        -0.570412      0.167111     -0.906318
76   2      9.44745      4.66349      2.18820         0.478817     -0.292343      0.062013
77   2      6.14026      4.31117      4.60492        -0.843760      0.573114      0.723770
78   2      8.61169      3.15476      4.73276         0.592763     -0.203143      0.558293
79   2      4.97471      3.01793      6.91222         0.640027      0.174018      0.106974
80   2      7.62849      4.25487      7.55683         0.083527      0.030364     -0.834344
81   2      6.69260      2.63498      9.61385         0.040620      0.304650     -0.053274
82   2      9.46508      4.32961      9.64539         0.316777     -0.086793      0.227807
83   2      5.70229      4.23494     12.11230         0.467096      0.425493      0.133729
84   2      8.25861      2.90126     12.03350         0.351584      0.346842      0.037847
85   2      5.42211      5.54032     29.39470        -0.338617      0.439914      0.522684
86   2      7.74223      7.29519     29.75286        -0.370232     -0.749066     -0.550001
87   2      7.00628      5.93225      2.26024        -0.588025     -0.182751      0.205611
88   2      9.52333      7.75871      2.13186         0.211225     -0.748403      0.516165
89   2      5.96094      7.34492      5.02662         0.895418      0.123265     -0.466649
90   2      8.49721      5.94345      4.78494         0.420419      0.356472     -0.152088
91   2      5.29694      5.91354      7.28608         0.002489     -0.172328      0.342547
92   2      7.99865      7.22933      7.25642        -2.078965      0.699051     -0.180500
93   2      6.91629      5.85615      9.86831         0.010708     -0.657506     -0.104864
94   2      9.36767      7.39406      9.68911         0.689209     -0.242825     -0.105896
95   2      5.85347      7.18992     12.35360         0.413677      0.192019      0.018914
96   2      8.85536      5.84074     11.97190        -0.688805     -0.969062      0.503439
97   2      5.13987      8.78800     29.50980        -0.009009     -0.573975      0.370916
98   2      7.64010     10.05170      0.00902        -0.122970      0.971273     -0.359953
99   2      6.82566      8.75464      2.38203        -0.605006      0.062553      0.178147
100   2      9.44473     10.56000      2.25677         0.125196     -0.391277      0.299335
101   2      5.84594     10.17490      4.88177         0.715420      0.516764     -0.208873
102   2      8.43447      8.99456      4.65199        -0.026521     -0.444471      0.429518
103   2      5.16543      8.80500      7.47682         0.434348     -0.005596     -0.204890
104   2      7.64113     10.41070      7.18466        -0.068792     -0.319571      0.159801
105   2      6.86435      8.65634      9.80787        -0.355937      0.779531     -0.387732
106   2      9.33332     10.25950      9.70604        -0.576646      0.109812     -0.719361
107   2      5.98913     10.24310     12.19470        -0.046625     -0.345759     -0.034726
108   2      8.46248      8.63194     12.15820        -0.962805      0.656109      0.324246
109   2      5.08219     11.60030     29.73530         0.161373      0.088595     -0.386722
110   2      7.69730     13.11360     29.68300        -0.253274     -0.043389     -0.129588
111   2      6.86193     11.71420      2.35047        -0.308614      0.011685      0.021490
112   2      9.20026     13.33110      2.38155        -0.115914      0.146378     -0.580943
113   2      6.11317     13.29150      4.55961         0.075311     -0.173951      0.101762
114   2      8.65940     11.91870      4.73255        -0.956173      0.087660      0.323683
115   2      5.06320     11.83220      7.11000         0.195288     -0.205815      0.092269
116   2      7.63639     13.33790      7.19605         0.397017     -0.691928     -1.064548
117   2      6.59673     11.70620      9.67859         0.533769     -0.683064     -0.188651
118   2      9.40649     13.21880      9.64610        -0.162852      0.139278      0.130925
119   2      5.91611     13.29820     12.22460        -0.255120     -0.202396     -0.210380
120   2      8.36355     11.58270     11.95950        -0.041641      0.631822      0.373762
121   2     10.18480     14.49110     29.67410         0.000476      0.294686     -0.061122
122   2     12.63350      1.33795     29.54660         0.043733      0.184027      0.023008
123   2     11.59300     14.63720      2.48883         0.728342      0.248576      0.086242
124   2     14.19860      1.39498      2.16389         0.826719     -0.106154      0.453000
125   2     11.19340      1.70319      5.03731         0.004404     -0.260715     -0.845895
126   2     13.73630      0.06639      4.75134        -0.316485     -0.283552      0.168668
127   2     10.48010      0.02899      7.25324        -0.434169      0.010821      0.398946
128   2     12.95560      1.58113      7.19911        -0.225467      0.045694      0.006120
129   2     11.94950      0.06661      9.68152        -0.403077     -0.011738      0.174414
130   2     14.54120      1.51677      9.51816         0.070119      0.093211      0.588381
131   2     10.79730      1.38993     12.05750         0.109002     -0.116091     -0.229998
132   2     13.65320     14.71330     11.89990        -0.436877      0.825831      0.711625
133   2     10.19250      2.58215     29.51040        -0.399271      0.261702      0.314151
134   2     12.55380      4.30941     29.79700         0.456494     -0.359620     -0.118884
135   2     11.92550      2.74676      2.43084        -0.830994      0.868118     -0.010302
136   2     14.60850      4.49944      2.31267        -0.503114      0.199074      0.143316
137   2     11.22940      4.54971      4.72278        -0.565537      0.070711     -0.120476
138   2     13.77320      2.95440      4.72441        -0.385591      0.478475     -0.085786
139   2     10.37560      2.92871      7.36065        -0.466815      0.506493      0.117186
140   2     12.78010      4.65698      7.20015        -0.390160     -0.439247     -0.562126
141   2     12.09800      3.00634      9.62758        -0.605629      0.043672     -0.032951
142   2     14.50880      4.57176      9.27769         0.195817     -0.182927      1.156154
143   2     11.13970      4.17096     12.33270        -0.067833      0.281670     -0.473803
144   2     13.62020      2.90942     11.92860        -0.188022     -0.365889      0.398694
145   2     10.37610      5.87386     29.44930        -0.687235      0.173386      0.342999
146   2     12.72770      7.54531     29.78880        -0.144210     -0.005166     -0.250987
147   2     12.04370      5.99180      2.17512        -0.205864      0.023388      0.733099
148   2     14.63240      7.52339      2.41723        -0.227321     -0.151234     -0.127269
149   2     11.03120      7.59593      4.76209        -0.320161     -0.749012     -0.066887
150   2     13.45630      6.14184      4.76307         0.797172     -0.107108     -0.137623
151   2     10.30850      6.08855      7.24683         1.178882     -1.333769     -0.143357
152   2     12.82640      7.47697      7.35809        -0.370339      0.240683     -0.170219
153   2     12.04680      5.93162      9.86132        -0.516396     -0.012628      0.105858
154   2     14.33870      7.53420      9.70951         0.568344      0.039495      0.416679
155   2     10.89650      7.57006     12.18160         1.620454     -0.315942      0.206370
156   2     13.50080      5.98449     12.48230        -0.211662      0.015932     -0.520317
157   2     10.05430      8.77337     29.32830         0.892634      0.146949      0.029294
158   2     12.67260     10.48870     29.58720         0.203699     -0.296751     -0.058061
159   2     11.98980      9.11559      2.47507         0.314911     -0.576438     -0.248531
160   2     14.58740     10.46390      2.16438         0.020173     -0.177791      0.635857
161   2     10.88420     10.32690      4.83554         0.688813      0.391900      0.161294
162   2     13.62600      8.97954      4.92444        -0.114360     -0.571862     -0.315350
163   2     10.24520      8.89631      7.36649         0.170423      0.577995     -0.223639
164   2     12.67920     10.50740      7.22272         0.281778     -0.387138     -0.032561
165   2     11.98030      9.00128      9.87893         0.135001     -0.736113     -0.709531
166   2     14.48030     10.60620      9.76049        -0.061247     -1.053918     -0.274740
167   2     10.94680     10.43830     11.98620         0.247464      0.377115      0.951372
168   2     13.41050      9.00319     12.43210         0.332967     -0.147450     -0.325696
169   2     10.22160     11.65830     29.62800        -0.264179      0.290912     -0.228895
170   2     12.91510     13.37790     29.65220        -0.209864     -0.534486      0.097518
171   2     12.10670     11.86540      2.26363        -0.310976      0.506234      0.184152
172   2     14.57240     13.39540      2.47326        -0.492016     -0.224896     -0.208817
173   2     11.19060     13.28880      5.00934         0.674465     -0.012015     -0.496378
174   2     13.50240     11.68340      4.78140         0.309015      0.949154     -0.113464
175   2     10.09850     11.91460      7.21209         0.100910     -0.346844      0.192038
176   2     13.01760     13.37790      7.45946        -0.646419      0.083840     -0.596707
177   2     11.80390     11.73250      9.51964         0.217938      0.864053      0.484050
178   2     14.63740     13.35140      9.77246        -0.006378      0.328212     -0.419441
179   2     10.66070     13.27780     12.27750         0.270894      0.172283     -0.415136
180   2     13.53780     12.02220     12.03650        -0.295124     -0.781132      0.376176
