ITEM: TIMESTEP
0
ITEM: NUMBER OF ATOMS
180
ITEM: BOX BOUNDS pp pp pp
0.0 15.336255 
0.0 14.75731
0.0 29.7984842388
ITEM: ATOMS id type x y z fx fy fz
1   2      0.01764     14.64158     29.37700        -0.198237     -0.112715      0.288623
2   2      2.31411      1.67411     29.60480         0.298639     -0.015656      0.145611
3   2      1.76891     14.57922      2.01795        -0.284973      0.463638      0.870687
4   2      4.18339      1.70558      2.33376         0.434237     -0.383878     -0.074876
5   2      1.00739      1.56719      4.81606         0.225403      0.350734     -0.008069
6   2      3.56959      0.18645      4.98526        -0.032580     -0.504106     -0.254717
7   2      0.15714     14.65288      7.38028        -0.789931      0.283912     -0.386975
8   2      2.54495      1.57197      7.28039         0.024785      0.041125      0.199482
9   2      1.47130     14.72408      9.74132         0.308104     -0.439774      0.293359
10   2      4.13250      1.34132      9.83740         0.366206      0.059534     -0.090651
11   2      0.62339      1.33829     12.11680         1.365762      0.862957      0.201976
12   2      3.08743     14.74918     12.18440         0.473151      0.014321      0.104805
13   2     14.98880      2.76538     29.73010         0.589895      0.482845      0.068761
14   2      2.55408      4.55427     29.59570        -0.317419     -0.130224      0.036520
15   2      1.69013      2.94113      2.37125        -0.414236      0.240738      0.029929
16   2      4.23019      4.60766      2.33873         0.168389     -0.812745      0.365106
17   2      0.67412      4.52488      4.97847         0.109881     -0.235574     -0.502446
18   2      3.61740      3.00035      4.79681        -0.450742      0.752096      0.012765
19   2     15.26850      2.98490      7.48401         0.226486     -0.088687     -0.439343
20   2      2.53408      4.51151      7.08258         0.229673     -0.196817      0.072280
21   2      1.74661      2.78408      9.78929        -0.249833      0.346219     -0.367169
22   2      4.15279      4.58021      9.56374         0.438818     -0.531240      0.427467
23   2      0.91792      4.19491     12.14770        -0.396872      0.638115      0.070907
24   2      3.32403      2.98169     12.19870         0.735797     -0.143757     -0.021675
25   2     15.24610      6.00661     29.40630         0.397105     -0.202746      0.543711
26   2      2.72880      7.46224     29.55780        -0.887985     -0.418896     -0.908776
27   2      1.82462      5.90990      2.24248        -0.850885     -0.044281     -0.250951
28   2      4.28147      7.42312      1.97484         0.287248      0.146359      1.092550
29   2      0.83245      7.39085      4.46048        -0.217072     -0.091014      0.270037
30   2      3.28731      6.19420      4.66684         0.334347     -1.206085      0.058368
31   2     15.31680      5.89508      7.38339        -0.077197     -0.327494     -0.605051
32   2      2.63149      7.44198      7.08824        -0.503356     -0.369447      0.222736
33   2      1.66886      5.75914      9.62574        -0.081299      0.515005      0.080785
34   2      4.18578      7.43189      9.41911        -0.014303      0.422457      0.977575
35   2      0.78735      7.46725     12.10830         0.359052      0.177665     -0.130497
36   2      3.21892      6.14714     11.98760         0.546777     -0.300192      0.050640
37   2      0.27805      8.98040     29.72440        -0.278477     -0.363503     -1.213620
38   2      2.86524     10.29210     29.41510        -0.347723      0.459200     -0.085475
39   2      1.89969      8.85143      2.10133         0.229701      0.187504      0.935037
40   2      4.31631     10.46710      2.02692        -0.014343      0.006768      0.509582
41   2      0.99667     10.24010      4.59481         0.136249     -0.170179      0.884898
42   2      3.58184      8.95614      4.75647        -0.670384      0.598858     -0.999704
43   2      0.17655      8.68249      6.92314        -0.656989      0.558426      0.371649
44   2      2.50069     10.28620      7.23569        -0.339955      0.632145      0.315426
45   2      1.68605      8.99237      9.79246        -0.168391     -0.214156     -0.171060
46   2      4.28754     10.29240      9.72234        -0.246170     -0.354832     -0.079251
47   2      0.35974     10.52490     12.17490         1.205016     -0.612150     -0.221148
48   2      3.31004      9.01323     12.32760         0.169092     -0.083159     -0.423847
49   2      0.08945     11.70360     29.63140         0.087920      0.728933     -0.148577
50   2      2.62937     13.37300     29.53950         0.046688     -0.400965     -0.297865
51   2      1.85900     11.65380      2.51113         0.043660      1.154648     -0.603293
52   2      4.31343     13.44470      2.27221        -0.140719     -0.063070      0.084248
53   2      1.07201     13.52610      4.96194         0.067991     -0.529311     -0.545952
54   2      3.44679     11.89110      5.00979         0.003892      0.008745     -0.542230
55   2     15.28690     11.74090      7.30983         0.050551     -0.134123      0.207396
56   2      2.63152     13.30170      7.41107         0.187392     -0.099969      0.265153
57   2      1.68588     11.80290      9.80386        -0.437561      0.115608     -0.268028
58   2      4.23907     13.09740     10.00250        -0.307097      0.451236     -1.028717
59   2      0.63414     13.23250     12.29980         0.062480      0.260168     -0.204386
60   2      3.35987     11.83980     12.21040        -0.286253     -0.418131      0.599956
61   2      5.07993      0.28382     29.74110        -0.056831      0.049656     -0.023961
62   2      7.75989      1.48172     29.49550         0.045498     -0.312545      0.370835
63   2      6.90589      0.11506      2.26372        -0.050499      0.180141      0.299698
64   2      9.43081      1.50040      2.26327         0.114140     -0.245879      0.307763
65   2      6.00523      1.64426      5.15221         0.271140     -0.476323     -0.848643
66   2      8.50184      0.13005      4.82508        -0.239953     -0.480467     -0.442789
67   2      5.28812      0.00840      7.49898        -0.478586      0.153013      0.145911
68   2      7.75472      1.28888      7.35702        -0.168765      0.735961      0.487875
69   2      6.55256     14.51882     10.18120         1.004588      0.974247     -0.858956
70   2      9.16627      1.33092      9.81033        -0.133629     -0.227216      0.027251
71   2      5.70530      1.44923     12.65110        -0.081284     -0.074852     -0.658387
72   2      8.62024     14.74165     12.37790        -0.464381     -0.114869     -0.235602
73   2      5.13890      3.24380     29.65740        -0.790177     -0.961651     -0.003707
74   2      7.60330      4.29816     29.53370         0.420180      0.766928     -0.247257
75   2      6.93474      3.02450      2.13505        -0.176198     -0.181439      0.862229
76   2      9.45443      4.53125      2.42560        -0.679078     -0.069415     -0.005208
77   2      6.19442      4.53716      4.83417        -1.225532     -0.416277     -0.292063
78   2      8.47824      2.97557      4.96677         0.188483      0.115162     -0.686088
79   2      5.12369      2.91204      7.44157        -0.186196      0.321788      0.260175
80   2      7.52246      4.53194      7.32603         0.248439     -0.344837      0.178277
81   2      6.62291      2.95761      9.86635        -0.117626     -0.184026     -0.379518
82   2      9.46158      4.18690      9.50437        -0.497136      0.559495      0.426350
83   2      5.90359      4.60139     12.24990        -0.247374     -0.278111     -0.327069
84   2      8.16217      2.79173     12.15070         0.365255      0.195606      0.127314
85   2      5.10470      5.95845     29.34490         0.422317     -0.291337     -0.088000
86   2      7.88657      7.60737     29.23520        -0.419860     -0.264957      0.270215
87   2      6.64323      5.92847      2.09655         0.900525     -0.060655     -0.070213
88   2      9.20743      7.47027      2.14807        -0.080103     -0.085935      0.493687
89   2      5.81631      7.34328      4.45474         0.331269      0.386287      0.073516
90   2      8.35090      6.12083      4.61614         1.014368     -0.165154     -0.255503
91   2      5.05940      6.02646      7.25501        -0.196479     -0.864305     -0.698981
92   2      7.36157      7.38062      6.95956         0.888674      0.475746     -0.067289
93   2      6.93337      5.87688      9.78110        -0.365873     -0.255936     -0.086121
94   2      9.36450      7.17351      9.53358         0.216059      0.190081     -0.111861
95   2      5.97934      7.40985     11.92930        -0.113158      0.447372      0.075351
96   2      8.96203      5.69260     11.92330        -0.628600      0.029306      0.189813
97   2      5.29476      8.67320     29.40940        -0.041061      0.876845     -0.817940
98   2      7.73965     10.41670     29.49770        -0.048078      0.309670      0.052996
99   2      6.65878      8.99015      1.93794         0.825913     -0.365028      0.829748
100   2      9.24468     10.43790      2.30629         0.383308     -0.851223     -0.068358
101   2      6.02504     10.36510      4.55339        -1.020088     -0.565325      0.571425
102   2      8.47696      8.91974      4.56179         0.343572     -0.148487      0.191469
103   2      4.98311      9.07600      7.05822         1.064288      0.287480      0.497385
104   2      7.93948     10.23760      7.11298        -0.837561     -0.061100      0.439047
105   2      6.82182      8.78968      9.33567        -0.144579     -0.117563      0.451493
106   2      9.33839      9.99806      9.96643        -0.187943      0.105089     -0.393535
107   2      6.06252     10.26010     12.44880        -0.033041     -0.010756     -0.375130
108   2      8.86445      8.64959     12.34930        -0.314259     -0.073419     -0.085872
109   2      5.11113     12.00310     29.47880         0.110326     -0.072530      0.114546
110   2      7.55106     13.31820     29.71300         0.070048     -0.058503     -0.064338
111   2      6.80671     11.83730      2.38997        -0.045684      0.529980     -1.018959
112   2      9.41843     13.16020      2.31056        -0.731736      0.953422      0.085355
113   2      5.95502     13.40280      4.56353        -0.088219      0.399769      0.690308
114   2      8.27763     11.79540      4.85785         1.177543      0.886488     -0.017513
115   2      5.22128     12.06570      7.16128         0.187763     -0.827084      0.211046
116   2      7.76164     13.24860      7.61825        -0.414299      0.004187     -0.535335
117   2      6.72735     11.57390      9.85375         0.252462      0.058117     -0.073726
118   2      9.26974     12.75260      9.79815         0.241739      0.728328      0.515652
119   2      5.91940     13.25020     12.42330         0.019740     -0.450950      0.756078
120   2      8.53452     11.80780     12.55440        -0.626188     -0.471913     -0.350082
121   2     10.16670     14.33924     29.63720         0.109433      0.909066     -0.084836
122   2     12.74230      1.31463     29.25860        -0.558543     -0.160010      0.536731
123   2     11.99660     14.72645      2.20213        -0.203193      0.441086     -0.058345
124   2     14.50970      1.22091      2.30119         0.559094      0.399501     -0.411912
125   2     11.11250      1.38214      4.72257         0.261230      0.401147     -0.328579
126   2     13.87010      0.04519      4.78301        -0.414305     -0.889561      0.216843
127   2     10.26100      0.17949      7.14714         0.129093     -0.748403      0.086062
128   2     12.89320      1.46527      7.16885        -0.116276     -0.027672     -0.378751
129   2     11.65800     14.60225      9.55127        -0.076046      0.034228      0.293738
130   2     14.18110      1.36496      9.66705         0.448347      0.093052      0.034312
131   2     11.10410      1.33507     12.06470        -0.230358      0.326564     -0.029487
132   2     13.63810      0.26392     12.25350        -1.371717     -1.609423      0.137051
133   2     10.20520      3.09141      0.09692         0.380770     -0.591656     -0.482293
134   2     12.73110      4.49527     29.60460         0.015062     -0.610132      0.035933
135   2     12.16950      2.93747      2.25351        -0.366694     -0.334388     -0.231854
136   2     14.59410      4.60165      2.28584         0.264456     -0.082480      0.112378
137   2     11.01950      4.26456      4.64547         0.528952      0.292502      0.582788
138   2     13.78370      2.75222      4.53526        -0.292388      1.077793      0.649350
139   2     10.17930      2.97410      7.14304         0.059757      0.086307     -0.070110
140   2     12.64100      4.34295      7.20027         0.253497      0.388189     -0.069635
141   2     11.78930      2.77226      9.56773         0.308705      0.215182      0.221674
142   2     14.52610      4.40958      9.79468        -0.443538     -0.423361     -0.180800
143   2     11.36300      4.40169     12.18840        -0.342515     -0.401556     -0.266915
144   2     13.63470      3.00078     12.43140         0.266914      0.031699     -0.334146
145   2      9.94670      5.82961     29.69680         0.584642      0.290365     -0.168394
146   2     12.72100      7.21127      0.00482         0.160336      0.332107     -0.602342
147   2     12.01080      5.81185      2.34044        -0.123455      0.212923      0.157150
148   2     14.59960      7.65358      2.13150         0.122736     -1.559007      0.210980
149   2     11.06420      7.33120      4.57094        -0.241462      0.426738      0.189975
150   2     13.54280      6.00098      4.79903         0.195750     -0.412538     -0.055003
151   2     10.05800      5.94471      6.99623         0.280238     -0.190634      0.004348
152   2     12.87190      7.35595      7.17902        -0.491176      0.118151     -0.146435
153   2     12.01260      5.95544      9.69201        -0.145895     -0.642280     -0.436690
154   2     14.52330      7.43007      9.53705         0.194332      0.256979      0.397815
155   2     11.37350      7.19523     12.24070        -0.559499      0.432760     -0.000428
156   2     13.85610      5.85779     12.08350        -0.015874     -0.156336      0.336203
157   2     10.40190      8.74079     29.78670        -0.176313      0.424871     -0.512139
158   2     12.95750     10.12400     29.33820        -0.040820      0.246108      0.466824
159   2     12.13510      8.90604      2.17770        -0.843887      0.327900      0.604730
160   2     14.56040     10.36770      2.22678        -0.107230      0.975786      0.103470
161   2     11.13740     10.42970      4.54550         0.034465     -0.351024      0.559202
162   2     13.73750      8.93276      4.60464        -0.618653     -0.027394      0.483961
163   2     10.26920      8.76531      7.27333         0.161665      0.029753     -0.544568
164   2     12.69500     10.32920      7.15674         0.076470      0.086327     -0.408954
165   2     11.85650      8.75612      9.62376        -0.049943      0.028383      0.105670
166   2     14.17020     10.27170      9.66601         1.026887      0.122127     -0.201114
167   2     11.27760     10.33170     12.13460        -0.538561     -0.633993      0.098352
168   2     13.64930      8.71993     12.14720        -0.276598      0.226363     -0.002883
169   2     10.42880     11.59210     29.76060        -0.147591     -0.370175     -0.520513
170   2     12.76250     13.21530     29.44420         0.465935     -0.170283      0.175434
171   2     11.91710     11.94380      2.31621         0.986251     -0.596276     -0.017533
172   2     14.58800     13.22340      2.24159        -0.046234     -0.375160      0.089936
173   2     10.98340     13.34760      4.58845         0.226811     -0.222798      0.779324
174   2     14.03390     11.82120      4.75876        -0.618480      0.316252      0.048071
175   2     10.14730     11.90390      7.10362         0.758963     -0.045025     -0.164009
176   2     12.69440     13.35070      7.03219         0.185285     -0.338660     -0.075711
177   2     11.87320     11.77400      9.62231        -0.678280     -0.328126     -0.169456
178   2     14.16400     13.20680      9.72524         0.839241      0.199970     -0.036994
179   2     10.89710     13.10130     12.23680         0.621360      0.630066     -0.074365
180   2     13.43980     11.91710     12.54100        -0.098142      0.666930     -0.251591
