ITEM: TIMESTEP
0
ITEM: NUMBER OF ATOMS
144
ITEM: BOX BOUNDS pp pp pp
0.0 12.4883307881 
0.0 12.4883307881
0.0 35.7286733738
ITEM: ATOMS id type x y z fx fy fz
1   2     12.38327     11.73110     35.29760        -0.249918      0.631231      0.179070
2   2      2.31154      2.02317      0.09593        -0.118667      0.236685     -0.768255
3   2      2.13218     12.35510      1.86077         0.111218     -0.613395     -0.031385
4   2      0.15090      1.83966      1.77191        -0.497603      0.040825      0.332423
5   2      0.18017     12.26440      3.90617        -0.242066      0.036267      0.098264
6   2      2.17853      2.10153      3.84751        -0.719823     -0.244723      1.044306
7   2      2.17707     12.27650      6.09691        -0.065681     -0.135258      0.273559
8   2      0.21197      1.79179      5.96768         0.680754      1.110721      0.186149
9   2      0.00833      0.00566      8.21077         0.108354     -0.489461      0.259199
10   2      2.15600      1.80325      8.54976         0.078761      0.282359     -0.591786
11   2      1.86311     12.45930     10.64470        -0.089012      0.003599     -0.194395
12   2     12.40070      2.09524     10.63130         0.637387     -0.090159      0.199229
13   2     12.28540     12.35624     12.72790         0.495077      0.341329     -0.099807
14   2      2.26569      2.09534     12.37850        -0.724951      0.472084      1.074901
15   2      1.94402     12.40520     14.70780        -0.105318      0.079367     -0.191024
16   2     12.22320      1.88507     14.67190         0.534257      0.527622      0.140673
17   2     12.46879      3.88106     35.48120         0.177460      0.239526      0.146027
18   2      1.85130      6.02345     35.22798         0.138626      0.008608      0.740181
19   2      2.04901      4.32163      2.12230        -0.118637     -0.393336     -0.629812
20   2     12.47274      6.14104      1.96924        -0.381657      0.167027     -0.179955
21   2      0.11418      4.11569      4.25439        -0.248834      0.049998     -0.245039
22   2      2.19406      6.42576      3.94336        -0.039866     -0.090996      0.904083
23   2      2.32107      4.00496      6.30625        -0.708204      0.091436     -0.041146
24   2      0.02571      6.18786      6.16054         0.097958      0.202797     -0.166161
25   2      0.18874      3.80037      8.31948         0.264171      0.699894     -0.187449
26   2      1.86568      6.35962      8.19145         0.687850     -0.431853      0.510584
27   2      2.04444      4.37173     10.48900        -0.094832     -0.375261      0.086184
28   2      0.03947      6.31999     10.49060        -0.392834     -0.650591     -0.084988
29   2     12.46100      4.12176     12.88400        -0.211509     -0.274009     -0.532765
30   2      1.91218      6.35153     12.70330         0.441366      0.098653     -0.063381
31   2      2.03559      4.31606     14.72680         0.494353     -0.269513     -0.073980
32   2     12.35344      6.21636     14.75180        -0.053564     -0.199490      0.218074
33   2      0.11077      8.25128     35.60330        -0.397369     -1.051840     -0.027051
34   2      2.03756     10.04910     35.24040         1.044912      0.302259      0.335843
35   2      2.24033      8.33259      1.89464        -0.249100      0.073323     -0.760469
36   2     12.41188     10.21250      1.89034         0.199668     -0.121107      0.545884
37   2     12.37649      8.21344      4.09895         0.360201      0.045892     -0.379802
38   2      2.19941     10.19450      3.98280         0.056509      0.387322     -0.013855
39   2      2.21353      8.39160      6.15464        -0.008458     -0.159445      0.175808
40   2     12.39750     10.26080      6.02104         0.780189      0.632048      0.660758
41   2     12.43860      8.31485      8.38417        -0.341944      0.567752     -0.370427
42   2      1.98380     10.43050      8.49848        -0.064653      0.142162     -0.963342
43   2      1.93907      8.42391     10.46150         0.357195     -0.562871      0.091820
44   2     12.39429     10.38210     10.50060        -0.650871      0.420682     -0.023434
45   2     12.17048      8.27973     12.44840         0.650126      0.229455      0.738892
46   2      2.01704     10.35750     12.58910        -0.611025      0.437732      0.427859
47   2      1.50757      8.50232     14.63120         0.867455     -0.505288      0.147542
48   2     12.23020     10.42420     15.13420         0.003392      1.064215     -0.275543
49   2      3.98310     12.21372     35.37960         0.078797      0.543818     -0.353625
50   2      6.26706      1.99244     35.35950        -0.357787      0.369360      0.580237
51   2      6.16050     12.42866      1.74593         0.439755      1.030309     -0.075766
52   2      4.19129      2.12833      2.09208         1.247788     -0.369859     -0.378212
53   2      4.20493      0.06457      4.07257         0.371028     -0.299485     -0.017794
54   2      6.33971      2.29002      4.12046        -0.200662     -0.412768     -0.088384
55   2      6.48064      0.25497      6.36766        -0.672184     -0.688191     -0.926809
56   2      4.15568      1.94914      6.30365         0.266293     -0.033852     -0.018824
57   2      4.26697     12.30705      8.36049         0.040079      0.391272     -0.403168
58   2      6.40521      2.24874      8.23609        -0.592710      0.036827      0.690298
59   2      6.08034     12.43704     10.58920         0.676549      0.259393      0.043850
60   2      4.16581      2.06609     10.44960         0.620751     -0.137452     -0.068846
61   2      4.13600     12.45303     12.67010         0.161839      0.120155      0.373917
62   2      6.19132      2.15263     12.64300        -0.336975      0.303414     -0.119896
63   2      6.32145      0.19651     14.75450        -0.651877     -0.048728      0.341224
64   2      4.00635      1.97186     14.84360        -0.042187      0.242175     -0.611142
65   2      4.17996      4.14801      0.16693        -0.194358     -0.402402     -1.127407
66   2      6.37013      5.87004     35.45490        -0.353469      0.118580     -0.167100
67   2      6.36121      4.18869      1.90160        -0.135465     -0.639082      0.474519
68   2      4.16860      6.22347      1.85822         0.428401      0.514044      0.206215
69   2      4.21388      4.16489      4.13680         0.225776      0.556305      0.329911
70   2      6.42909      6.25879      4.04997        -0.284238     -0.025949      0.039467
71   2      6.35321      4.31140      6.32487        -0.765439      0.136444     -0.723020
72   2      4.10168      6.19102      6.46962         0.215809      0.281319     -0.537187
73   2      4.13129      4.14959      8.54911        -0.105395      0.131426     -0.527844
74   2      6.10140      6.47350      8.47031         0.398753     -0.213806      0.262683
75   2      6.20617      4.10881     10.40310         0.222573      0.531443      0.413997
76   2      4.09468      6.38270     10.53070         0.010800     -0.118881     -0.126010
77   2      4.10216      4.35100     12.59490         0.218752     -0.040195      0.257134
78   2      6.11793      6.81242     12.60990         0.327211     -1.169892      0.765631
79   2      6.07773      4.53516     14.66680        -0.183269      0.328308     -0.323557
80   2      3.97531      6.61769     14.91250         0.126618     -0.010163     -0.671929
81   2      4.45636      8.12652     35.44950        -0.225231      0.010282      0.239427
82   2      6.21236     10.35310     35.25090         0.347208     -0.113363      0.205955
83   2      6.55670      8.23342      1.78906        -0.219237     -0.153360     -0.002113
84   2      4.33672     10.47490      1.66849        -0.725026     -1.180870      0.622102
85   2      4.43546      8.37703      3.69763         0.151384      0.093083      0.671641
86   2      6.37764     10.56270      3.89115        -0.246894     -0.289640      0.418796
87   2      6.08837      8.44667      6.19852         0.318439     -0.480201     -0.268213
88   2      4.29988     10.43930      6.15576        -0.223632      0.307341     -0.116995
89   2      4.26202      8.61107      8.63786        -0.192507     -0.397008     -0.747708
90   2      6.54172     10.37560      8.28352        -0.430491      0.388922      0.113554
91   2      6.39804      8.74541     10.65720        -0.314833     -0.409507     -0.407096
92   2      3.99369     10.58850     10.51350         0.368884     -0.094075      0.371650
93   2      4.03017      8.49322     12.43490        -0.290997     -0.108181      0.572434
94   2      6.23334     10.31700     13.06160         0.080606      0.595440     -0.716835
95   2      6.18974      8.60633     15.21700         0.082378     -0.619099     -0.237219
96   2      4.01236     10.39080     14.71370        -0.327763     -0.042801      0.203484
97   2      8.31624      0.18567     35.40790        -0.138291     -0.788648      0.142816
98   2     10.64230      1.58033     35.46640         0.267929      0.393833      0.040354
99   2     10.47550     12.30200      1.97110        -0.220195     -0.120723     -0.166163
100   2      8.33720      2.04969      1.81402        -0.104716     -0.010553      0.027199
101   2      8.30526      0.12303      3.91739         0.108291     -0.011293      0.189362
102   2     10.54720      1.98405      3.97808        -0.020047      0.317288     -0.159474
103   2     10.56010      0.21937      6.13111        -0.958002     -1.019768      0.134943
104   2      8.46162      2.25506      6.09704         0.332645     -0.169699      0.002934
105   2      8.28636      0.19109      8.45504         0.537486     -0.284240      0.236531
106   2     10.54950      2.04398      8.39598        -0.662757      0.017694     -0.337093
107   2     10.33310      0.11731     10.48170         0.124981     -0.408420      0.313509
108   2      8.35294      2.24253     10.53600        -0.217351     -0.299328     -0.133164
109   2      8.30378      0.20717     12.89170         0.380047     -0.189246     -0.659424
110   2     10.32650      2.16181     12.61700        -0.120756      0.189923      0.328067
111   2     10.28110      0.04471     15.05870        -0.020972      0.009764     -0.320810
112   2      7.98032      2.50869     14.87270         0.381792     -0.128083     -0.203088
113   2      8.66561      4.03139     35.39220        -0.390895     -0.557024      0.036668
114   2     10.41360      6.15546     35.47700         0.677572      0.233354      0.152077
115   2     10.57250      3.81884      1.83107         0.066167      0.419719      0.185873
116   2      8.49563      5.94028      1.81156         0.080224      0.569934      0.166132
117   2      8.48303      4.17330      3.98649         0.066911     -0.185232      0.182152
118   2     10.30710      6.25911      4.17682         0.196742     -0.304967      0.155352
119   2     10.54850      4.18850      6.39971         0.071865     -0.283458     -0.840624
120   2      8.13935      6.50204      6.40418         0.460993     -0.124931     -0.469048
121   2      8.38162      4.27113      8.17732         0.255289      0.146017      1.059547
122   2     10.51640      6.17492      8.35419        -0.156492      0.280652      0.221078
123   2     10.52740      4.14372     10.37870        -0.262691      0.612352      0.315195
124   2      8.21420      6.34172     10.67860        -0.103119     -0.103407     -0.513092
125   2      8.25314      4.28412     12.53910        -0.261283     -0.128858      0.461117
126   2     10.31050      6.17252     12.69260        -0.067489     -0.118943     -0.012117
127   2     10.15120      4.29883     15.06400         0.266051     -0.241688     -0.626086
128   2      8.32616      6.36864     14.97630        -0.305339      0.288236     -0.446508
129   2      8.14129      7.86893     35.20250         0.535945      0.758342      0.294916
130   2     10.33600      9.83546     35.49140        -0.627857      0.127328      0.117817
131   2     10.30730      8.14499      2.03088         0.026115      0.117642     -0.268731
132   2      8.23880     10.48080      1.65265         0.514481     -0.138351     -0.109474
133   2      8.34291      8.40200      4.11289        -0.565775     -0.259765     -0.005359
134   2     10.25260     10.34090      4.20829         0.500338      0.628625     -0.977760
135   2     10.41680      8.38166      6.30810        -0.464806     -0.501541      0.147904
136   2      8.38027     10.63360      6.17158        -0.176421     -0.035301      0.180275
137   2      8.46600      8.34343      8.45971        -0.215149      0.039308      0.087917
138   2     10.37150     10.52970      8.32813         0.053635      0.048341      0.071783
139   2     10.30240      8.26124     10.50830        -0.282180      0.295766     -0.202990
140   2      8.31161     10.65300     10.64450         0.483336      0.149293      0.190219
141   2      8.38975      8.47747     12.89530         0.122741     -0.224591      0.074439
142   2     10.39290     10.44490     12.76650        -0.619016     -0.040090     -0.062464
143   2     10.56660      8.31848     14.90210        -0.749259     -0.189617     -0.126358
144   2      8.34087     10.63980     14.93150        -0.035404     -0.530769      0.066166
