ITEM: TIMESTEP
0
ITEM: NUMBER OF ATOMS
180
ITEM: BOX BOUNDS pp pp pp
0.0 15.336255 
0.0 14.75731
0.0 29.7984842388
ITEM: ATOMS id type x y z fx fy fz
1   2     14.98830      0.20111     29.66980         0.264241     -0.741239      0.066357
2   2      2.49938      1.31220     29.65690        -0.420117     -0.057612     -0.262397
3   2      1.56170      0.00265      2.29302        -0.075460      0.071373     -0.417474
4   2      4.09521      1.35619      2.11687         0.211950      0.051560      0.861587
5   2      0.90607      1.46589      4.79484         0.227424      0.509667      0.031958
6   2      3.52263     14.71202      4.78438        -1.043422      0.817008     -0.351229
7   2     15.30600      0.00926      7.01661         0.529854      0.222555      0.618424
8   2      2.72397      1.70548      7.25550        -0.358639     -0.074908      0.184097
9   2      1.97635     14.75308      9.70186        -0.838865      0.742302     -0.449321
10   2      4.48340      1.60543      9.85991        -0.838073     -0.201375     -0.806033
11   2      1.16008      1.56853     12.35940        -0.599742      0.345989     -0.394088
12   2      3.43960      0.08999     12.21410         0.449400     -0.112278      0.152090
13   2      0.17304      2.94310     29.69050        -0.482088      0.066162     -0.051104
14   2      2.55733      4.52493     29.68740         0.233466     -0.468989     -0.013969
15   2      1.59056      2.96057      2.38862         0.225043      0.152389      0.170490
16   2      4.31628      4.24307      2.28109        -0.094874      0.023371      0.166179
17   2      0.90188      4.35362      4.85341         0.350148      0.253236     -0.428548
18   2      3.60248      2.98364      4.78073        -0.736408     -0.348411      0.011335
19   2     15.32340      3.10971      7.19895         0.444475     -0.717449      0.039611
20   2      2.81958      4.62495      7.20348        -0.210801     -0.555369     -0.437536
21   2      1.64465      2.94542      9.75182         0.370849     -0.584796     -0.379032
22   2      4.32069      4.51123      9.80622         0.141135      0.058091     -0.268586
23   2      1.21749      4.53063     12.04740        -0.439049     -0.420766      0.297071
24   2      3.66619      3.16107     12.24170         0.066439     -0.305358      0.010379
25   2      0.03125      5.78944     29.79240        -0.868898      0.174067     -0.424642
26   2      2.36993      7.28358     29.57770         0.334365      0.298586     -0.276494
27   2      1.64510      6.02156      2.22151        -0.144332     -0.918516      0.937547
28   2      4.22213      7.14188      2.03686         0.138321      0.442677      0.455722
29   2      1.11946      7.40557      4.73876        -0.327124     -0.410538      0.194129
30   2      3.62925      5.95609      4.48929        -0.614261     -0.342960      0.440027
31   2      0.02134      5.95590      7.07033         0.114638      0.433660      0.004927
32   2      2.88827      7.39070      7.15227        -0.579965      0.427165      0.000723
33   2      1.63274      5.71581      9.45267         0.449696      0.941365      0.048621
34   2      4.32088      7.59061      9.76180         0.102426     -0.265378     -0.074355
35   2      1.05821      7.24947     11.85050        -0.259750      0.549377      0.088743
36   2      3.75746      6.03856     12.13310         0.108796     -0.092478      0.129658
37   2     15.02060      8.99667     29.73840        -0.152386     -0.158408     -0.065926
38   2      2.39627     10.01040     29.76230         0.059375      0.710278     -0.204427
39   2      1.44705      8.75455      2.26689         0.499834      0.333347      0.313593
40   2      4.29077     10.17530      2.26707        -0.272496      0.164194      0.040755
41   2      0.97968     10.33320      4.79080        -0.024009      0.056745      0.169249
42   2      3.58615      8.80220      4.60890        -0.394946      0.416200      0.166820
43   2      0.13324      8.90134      7.08865         0.241713     -0.377289      0.723196
44   2      2.54875     10.35530      7.20276         0.371854      0.058537     -0.214528
45   2      1.79144      8.88835      9.60721        -0.325671     -0.430564     -0.164195
46   2      4.18381     10.52770      9.74041         0.770567     -0.346059     -0.383716
47   2      0.66386     10.24550     11.99030         0.211880      0.119895      0.025273
48   2      3.49797      8.82773     12.24170         0.177657     -0.028350     -0.194922
49   2     15.11550     11.85300     29.70390        -0.268173      0.169858      0.184000
50   2      2.31543     13.02120     29.73260        -0.338996      0.302341     -0.020728
51   2      1.47523     11.57750      2.42580         0.311011      0.468561     -0.547836
52   2      3.97602     13.20450      2.24573         0.256911     -0.101426      0.004654
53   2      0.80750     13.43450      4.56936         0.336527     -0.717259      0.738118
54   2      3.49331     11.93340      4.70827        -0.883495     -1.094908      0.101229
55   2     15.28730     11.87210      7.10992         0.501767     -0.065571     -0.179607
56   2      2.62215     13.45630      7.21287        -0.659538     -0.212277      0.105146
57   2      1.63298     11.72850      9.56235         0.491027      0.030626      0.067861
58   2      4.25361     13.35420      9.89257         0.573157     -0.397936     -0.576797
59   2      0.96237     13.43640     12.07120        -0.304611     -0.244781      0.087368
60   2      3.20144     11.56220     12.12840         0.131761      0.554596      0.154455
61   2      4.88861     14.52821     29.47690        -0.011942      0.160211      0.133137
62   2      7.34688      1.24456     29.43750        -0.179044      0.275256      0.324064
63   2      6.57471     14.66102      2.20663         0.059433     -0.510724      0.070153
64   2      9.22314      1.27938      2.25228         0.114874      0.543036      0.597001
65   2      5.97565      1.26418      4.84598        -0.002694      0.936708     -0.498812
66   2      8.50665     14.73826      4.72873         0.045135      0.051627      0.156933
67   2      5.09262     14.75686      7.19240         0.303251      0.105768      0.776663
68   2      7.62615      1.37820      7.11137         0.301011      0.171359      0.688387
69   2      6.90742     14.66143      9.61819         0.145053      0.650344     -0.219071
70   2      9.63576      1.37028      9.86382        -0.732720      0.237605      0.066907
71   2      6.09504      1.41772     12.08130         0.092931      0.328807      0.534054
72   2      8.45456     14.62603     12.26240        -0.039472      0.451721     -0.145866
73   2      4.89687      2.93524     29.68210         0.569018     -0.249212     -0.407198
74   2      7.75751      4.29631      0.00052        -0.369484     -0.309988     -0.448966
75   2      6.80610      2.57518      2.41583        -0.468188      1.070661     -0.104426
76   2      9.30388      4.10474      2.37881        -0.070774      0.650024      0.301237
77   2      5.95031      4.38017      4.74618         0.309748     -0.019576      0.082780
78   2      8.47266      2.93909      4.89267        -0.065194     -0.099424     -0.038495
79   2      5.27087      3.10350      7.31172        -0.224741     -0.279746     -0.085733
80   2      7.75614      4.45619      7.44218        -0.140560      0.161032     -0.665381
81   2      6.93600      2.86017      9.65074         0.361792      0.098010      0.210466
82   2      9.35849      4.39794      9.67780         0.101877      0.095381      0.204105
83   2      6.34028      4.23950     12.43800        -0.169139      0.345745     -0.416698
84   2      8.74103      2.69641     12.20010        -0.236736      0.433629      0.004538
85   2      5.23359      5.79594     29.58240        -0.129517     -0.295325     -0.217549
86   2      7.62413      7.31363     29.51350         0.368796      0.073373      0.375844
87   2      6.84561      5.75439      2.18518         0.130154      0.184333      0.583468
88   2      9.40160      7.51857      2.26974        -0.416439     -0.340478      0.073565
89   2      5.98842      7.41086      5.01420         0.365184     -0.321403     -0.285546
90   2      8.30482      5.79032      4.69822         0.620741      0.333057      0.090737
91   2      5.32149      6.01568      7.48004         0.002483     -0.261786     -0.055485
92   2      7.70681      7.51034      7.41526         0.661580     -0.076423     -0.106739
93   2      6.90727      5.96796      9.94561        -0.365369     -0.373733     -0.045584
94   2      9.20855      7.49965      9.95586         0.554467     -0.066684     -0.638641
95   2      6.31087      7.45372     12.28540        -0.534568     -0.137830     -0.092975
96   2      8.76693      5.72779     12.44930        -0.364092      0.216757     -0.427848
97   2      5.08543      8.67814     29.65570        -0.101166      0.302113     -0.182839
98   2      7.47771     10.23340     29.64040        -0.090719     -0.453078     -0.093084
99   2      6.72097      8.66295      2.45066         0.247064      0.075223     -0.173227
100   2      9.23208     10.48460      2.05269        -0.175361     -0.327064      0.657214
101   2      5.99725     10.30060      4.74383         0.190044      0.303263      0.065585
102   2      8.54299      8.72396      4.77623        -0.227581      0.208096      0.102512
103   2      5.27392      8.96721      7.28253        -0.370312      0.525544      0.138039
104   2      7.78705     10.52430      7.14385        -0.270215     -1.002725     -0.113811
105   2      6.82051      9.03999      9.70201        -0.047580      0.302475      0.308732
106   2      9.50349     10.40730      9.51325        -0.391996     -0.473514      0.609117
107   2      6.13781     10.54780     12.27010        -0.681441     -0.533954     -0.354142
108   2      8.62364      8.89591     12.28910         0.433642      0.555849      0.031305
109   2      4.74859     11.68160     29.61670         0.380543     -0.443896      0.011220
110   2      7.31266     12.98000     29.64400         0.336999      0.743799     -0.386860
111   2      6.67759     11.85430      2.29880        -0.074520     -0.543092      0.438991
112   2      9.28192     13.31870      2.32098        -0.427142     -0.424618     -0.199097
113   2      5.86040     13.25380      4.73746         1.134223     -0.409209     -0.039703
114   2      8.47500     11.93780      4.78674         0.158002     -0.548634     -0.448574
115   2      4.99070     11.88400      7.19716         0.374854     -0.230168      0.299942
116   2      7.87593     13.25040      7.24809        -0.576210      0.855606     -0.425487
117   2      6.99724     11.93790      9.53240        -0.571695     -0.744748      0.544166
118   2      9.63369     13.17860      9.57132        -0.493295      0.307947      0.749353
119   2      5.96269     13.39460     12.10490        -0.124185     -0.607667      0.236062
120   2      8.50672     11.82300     12.27550         0.492766     -0.087005     -0.201489
121   2      9.87517      0.08018     29.67250         0.205388     -0.855636     -0.704408
122   2     12.61760      1.69083     29.56410         0.456002     -0.474193     -0.069230
123   2     11.81840      0.16097      2.07177         0.222397     -0.694093      0.401800
124   2     14.35930      1.43731      2.37189         0.160585      0.192328      0.009903
125   2     10.94560      1.42149      4.95402        -0.050552     -0.020805     -0.546139
126   2     13.58870      0.05034      4.70896        -0.070963      0.346326     -0.742129
127   2     10.23620      0.09851      7.51745         0.320078      0.222409     -1.062574
128   2     12.77110      1.44831      7.04911         0.324503      0.298341      0.735878
129   2     12.13610      0.07095      9.76645         0.345492     -0.532172     -0.290727
130   2     14.59390      1.45767      9.50395         0.158118     -0.218863     -0.062425
131   2     11.36190      1.71326     12.15380         0.078080     -0.619328      0.070098
132   2     13.69260      0.00586     12.17390         0.229002      0.417248     -0.248275
133   2     10.17720      2.83107     29.72560        -0.263107      0.549271     -0.177403
134   2     12.79010      4.41342     29.37080         0.061736      0.025953      0.419808
135   2     11.84010      2.90816      2.45997         0.042175      0.169132     -0.087302
136   2     14.35590      4.36334      2.30178         0.131903      0.181702      0.024371
137   2     10.96710      4.42965      4.84362         0.005125      0.036220     -0.148777
138   2     13.51820      3.04981      4.75377         0.325349     -0.306175      0.090677
139   2     10.30090      3.02258      7.27276        -0.587135     -0.270173      0.047025
140   2     12.78690      4.37979      7.27684         0.051297      0.356594     -1.113189
141   2     12.03250      2.99156      9.53793        -0.043178     -0.328506      0.266066
142   2     14.43190      4.58288      9.52019         0.274116     -0.483380      0.190814
143   2     11.16380      4.46653     11.80970         0.337430      0.199151      0.463219
144   2     13.86040      3.02679     11.83850         0.375562     -0.241182      0.328863
145   2     10.23750      5.77126      0.06542        -0.062826      0.208408     -0.196577
146   2     12.78540      7.17203     29.64580        -0.161960      0.380878      0.316923
147   2     11.80920      5.83763      2.45388         0.183647      0.081738     -0.180201
148   2     14.29120      7.45077      2.39151        -0.278711     -0.726585     -0.057653
149   2     11.03390      7.31994      4.75775        -0.067342      0.063973     -0.215514
150   2     13.69690      5.86213      4.73084        -0.048052     -0.054576      0.007082
151   2     10.18680      5.94280      7.17502        -0.614608      0.079552     -0.262365
152   2     12.68320      7.43039      7.11724         0.587423     -0.717929      0.577817
153   2     11.85870      6.02251      9.33660        -0.261050      0.084278      1.192815
154   2     14.39570      7.37576      9.56123         0.445156      0.263983     -0.101035
155   2     11.17280      7.32862     11.96200         0.179529      0.302715      0.153283
156   2     13.73320      5.87916     11.94390         0.001287      0.331531      0.200795
157   2     10.16270      8.83182     29.54510        -0.066366     -0.202607      0.150488
158   2     12.38910     10.68670      0.00572         0.847949     -0.737248     -0.525808
159   2     11.74920      9.03102      2.28462         0.062021     -0.571669      0.020811
160   2     14.23950     10.19670      2.50268         0.169742      0.627864     -0.179647
161   2     10.92180     10.21020      4.75608         0.194630      0.524026     -0.106077
162   2     13.70660      8.65131      5.01960         0.095656      0.669485     -1.667570
163   2     10.36050      8.86087      7.25676        -1.002520      0.082439     -0.287805
164   2     12.84650     10.37760      7.04567        -0.148355      0.173648      0.331721
165   2     11.93500      8.98148      9.57424        -0.250536     -0.543281      0.581732
166   2     14.41120     10.15560      9.53350         0.598805      0.582315      0.082252
167   2     11.21070     10.69810     12.27060        -0.205306     -0.618257     -0.339822
168   2     13.59960      8.90868     12.24990        -0.360835     -0.113735     -0.457607
169   2      9.94490     11.82020     29.38040        -0.326947      0.399890      0.110717
170   2     12.41210     13.43760     29.39710         0.243161      0.248510      0.312076
171   2     11.70380     11.91150      2.34463         0.510588      0.026858      0.044050
172   2     14.33830     13.20620      2.39191        -0.225241      0.135333     -0.589074
173   2     11.11310     13.31620      4.57149        -0.289597      0.116690      0.581684
174   2     13.65300     11.75230      4.73012        -0.136535     -0.117712     -0.096018
175   2     10.36340     11.86620      7.17810         0.267167     -0.107201     -0.791000
176   2     12.77840     13.39610      6.90578        -0.309885     -0.496754      0.970918
177   2     12.08010     11.79620      9.50365         0.492954      0.520759      0.269085
178   2     14.78940     13.24250      9.49870        -1.175554      0.659476      0.296759
179   2     10.86740     13.46020     12.06830         0.993303      0.038545      0.225901
180   2     13.67960     12.01550     12.17090         0.176717     -0.300696     -0.319935
